<?xml version="1.0" encoding="UTF-8"?>

<!-- generated on Thu Mar 15 01:22:05 2018 by SUMO Version 0.32.0
<?xml version="1.0" encoding="UTF-8"?>

<configuration xmlns:xsi="http://www.w3.org/2001/XMLSchema-instance" xsi:noNamespaceSchemaLocation="http://sumo.dlr.de/xsd/sumoConfiguration.xsd">

    <input>
        <net-file value="data/cross.net.xml"/>
        <route-files value="data/cross.rou.xml"/>
        <additional-files value="data/cross.det.xml,data/cross.det2.xml"/>
    </input>

    <output>
        <tripinfo-output value="ql_tripinfo.xml"/>
    </output>

    <time>
        <begin value="0"/>
    </time>

    <report>
        <verbose value="true"/>
        <error-log value="errors"/>
        <no-step-log value="true"/>
    </report>

    <traci_server>
        <remote-port value="54745"/>
    </traci_server>

</configuration>
-->

<detector xmlns:xsi="http://www.w3.org/2001/XMLSchema-instance" xsi:noNamespaceSchemaLocation="http://sumo.dlr.de/xsd/det_e2_file.xsd">
   <interval begin="0.00" end="1.00" id="0" sampledSeconds="0.00" nVehEntered="0" nVehLeft="0" nVehSeen="0" meanSpeed="-1.00" meanTimeLoss="-1.00" meanOccupancy="0.00" maxOccupancy="0.00" meanMaxJamLengthInVehicles="0.00" meanMaxJamLengthInMeters="0.00" maxJamLengthInVehicles="0" maxJamLengthInMeters="0.00" jamLengthInVehiclesSum="0" jamLengthInMetersSum="0.00" meanHaltingDuration="0.00" maxHaltingDuration="0.00" haltingDurationSum="0.00" meanIntervalHaltingDuration="0.00" maxIntervalHaltingDuration="0.00" intervalHaltingDurationSum="0.00" startedHalts="0.00" meanVehicleNumber="0.00" maxVehicleNumber="0" />
   <interval begin="0.00" end="1.00" id="1" sampledSeconds="0.00" nVehEntered="0" nVehLeft="0" nVehSeen="0" meanSpeed="-1.00" meanTimeLoss="-1.00" meanOccupancy="0.00" maxOccupancy="0.00" meanMaxJamLengthInVehicles="0.00" meanMaxJamLengthInMeters="0.00" maxJamLengthInVehicles="0" maxJamLengthInMeters="0.00" jamLengthInVehiclesSum="0" jamLengthInMetersSum="0.00" meanHaltingDuration="0.00" maxHaltingDuration="0.00" haltingDurationSum="0.00" meanIntervalHaltingDuration="0.00" maxIntervalHaltingDuration="0.00" intervalHaltingDurationSum="0.00" startedHalts="0.00" meanVehicleNumber="0.00" maxVehicleNumber="0" />
   <interval begin="0.00" end="1.00" id="2" sampledSeconds="0.00" nVehEntered="0" nVehLeft="0" nVehSeen="0" meanSpeed="-1.00" meanTimeLoss="-1.00" meanOccupancy="0.00" maxOccupancy="0.00" meanMaxJamLengthInVehicles="0.00" meanMaxJamLengthInMeters="0.00" maxJamLengthInVehicles="0" maxJamLengthInMeters="0.00" jamLengthInVehiclesSum="0" jamLengthInMetersSum="0.00" meanHaltingDuration="0.00" maxHaltingDuration="0.00" haltingDurationSum="0.00" meanIntervalHaltingDuration="0.00" maxIntervalHaltingDuration="0.00" intervalHaltingDurationSum="0.00" startedHalts="0.00" meanVehicleNumber="0.00" maxVehicleNumber="0" />
   <interval begin="0.00" end="1.00" id="3" sampledSeconds="0.00" nVehEntered="0" nVehLeft="0" nVehSeen="0" meanSpeed="-1.00" meanTimeLoss="-1.00" meanOccupancy="0.00" maxOccupancy="0.00" meanMaxJamLengthInVehicles="0.00" meanMaxJamLengthInMeters="0.00" maxJamLengthInVehicles="0" maxJamLengthInMeters="0.00" jamLengthInVehiclesSum="0" jamLengthInMetersSum="0.00" meanHaltingDuration="0.00" maxHaltingDuration="0.00" haltingDurationSum="0.00" meanIntervalHaltingDuration="0.00" maxIntervalHaltingDuration="0.00" intervalHaltingDurationSum="0.00" startedHalts="0.00" meanVehicleNumber="0.00" maxVehicleNumber="0" />
   <interval begin="1.00" end="73.00" id="0" sampledSeconds="19.67" nVehEntered="3" nVehLeft="3" nVehSeen="3" meanSpeed="16.02" meanTimeLoss="0.10" meanOccupancy="1.33" maxOccupancy="10.00" meanMaxJamLengthInVehicles="0.00" meanMaxJamLengthInMeters="0.00" maxJamLengthInVehicles="0" maxJamLengthInMeters="0.00" jamLengthInVehiclesSum="0" jamLengthInMetersSum="0.00" meanHaltingDuration="0.00" maxHaltingDuration="0.00" haltingDurationSum="0.00" meanIntervalHaltingDuration="0.00" maxIntervalHaltingDuration="0.00" intervalHaltingDurationSum="0.00" startedHalts="0.00" meanVehicleNumber="0.32" maxVehicleNumber="2" />
   <interval begin="1.00" end="73.00" id="1" sampledSeconds="29.64" nVehEntered="5" nVehLeft="4" nVehSeen="5" meanSpeed="16.17" meanTimeLoss="0.09" meanOccupancy="1.97" maxOccupancy="10.00" meanMaxJamLengthInVehicles="0.00" meanMaxJamLengthInMeters="0.00" maxJamLengthInVehicles="0" maxJamLengthInMeters="0.00" jamLengthInVehiclesSum="0" jamLengthInMetersSum="0.00" meanHaltingDuration="0.00" maxHaltingDuration="0.00" haltingDurationSum="0.00" meanIntervalHaltingDuration="0.00" maxIntervalHaltingDuration="0.00" intervalHaltingDurationSum="0.00" startedHalts="0.00" meanVehicleNumber="0.46" maxVehicleNumber="2" />
   <interval begin="1.00" end="73.00" id="2" sampledSeconds="0.00" nVehEntered="0" nVehLeft="0" nVehSeen="0" meanSpeed="-1.00" meanTimeLoss="-1.00" meanOccupancy="0.00" maxOccupancy="0.00" meanMaxJamLengthInVehicles="0.00" meanMaxJamLengthInMeters="0.00" maxJamLengthInVehicles="0" maxJamLengthInMeters="0.00" jamLengthInVehiclesSum="0" jamLengthInMetersSum="0.00" meanHaltingDuration="0.00" maxHaltingDuration="0.00" haltingDurationSum="0.00" meanIntervalHaltingDuration="0.00" maxIntervalHaltingDuration="0.00" intervalHaltingDurationSum="0.00" startedHalts="0.00" meanVehicleNumber="0.00" maxVehicleNumber="0" />
   <interval begin="1.00" end="73.00" id="3" sampledSeconds="28.48" nVehEntered="2" nVehLeft="0" nVehSeen="2" meanSpeed="6.60" meanTimeLoss="9.41" meanOccupancy="2.85" maxOccupancy="14.00" meanMaxJamLengthInVehicles="0.19" meanMaxJamLengthInMeters="1.36" maxJamLengthInVehicles="1" maxJamLengthInMeters="7.00" jamLengthInVehiclesSum="14" jamLengthInMetersSum="98.00" meanHaltingDuration="15.00" maxHaltingDuration="15.00" haltingDurationSum="15.00" meanIntervalHaltingDuration="15.00" maxIntervalHaltingDuration="15.00" intervalHaltingDurationSum="15.00" startedHalts="1.00" meanVehicleNumber="0.42" maxVehicleNumber="2" />
   <interval begin="73.00" end="79.00" id="0" sampledSeconds="0.00" nVehEntered="0" nVehLeft="0" nVehSeen="0" meanSpeed="-1.00" meanTimeLoss="-1.00" meanOccupancy="0.00" maxOccupancy="0.00" meanMaxJamLengthInVehicles="0.00" meanMaxJamLengthInMeters="0.00" maxJamLengthInVehicles="0" maxJamLengthInMeters="0.00" jamLengthInVehiclesSum="0" jamLengthInMetersSum="0.00" meanHaltingDuration="0.00" maxHaltingDuration="0.00" haltingDurationSum="0.00" meanIntervalHaltingDuration="0.00" maxIntervalHaltingDuration="0.00" intervalHaltingDurationSum="0.00" startedHalts="0.00" meanVehicleNumber="0.00" maxVehicleNumber="0" />
   <interval begin="73.00" end="79.00" id="1" sampledSeconds="10.59" nVehEntered="1" nVehLeft="0" nVehSeen="2" meanSpeed="10.72" meanTimeLoss="1.89" meanOccupancy="9.17" maxOccupancy="10.00" meanMaxJamLengthInVehicles="0.17" meanMaxJamLengthInMeters="0.83" maxJamLengthInVehicles="1" maxJamLengthInMeters="5.00" jamLengthInVehiclesSum="1" jamLengthInMetersSum="5.00" meanHaltingDuration="2.00" maxHaltingDuration="2.00" haltingDurationSum="2.00" meanIntervalHaltingDuration="2.00" maxIntervalHaltingDuration="2.00" intervalHaltingDurationSum="2.00" startedHalts="1.00" meanVehicleNumber="1.83" maxVehicleNumber="2" />
   <interval begin="73.00" end="79.00" id="2" sampledSeconds="0.00" nVehEntered="0" nVehLeft="0" nVehSeen="0" meanSpeed="-1.00" meanTimeLoss="-1.00" meanOccupancy="0.00" maxOccupancy="0.00" meanMaxJamLengthInVehicles="0.00" meanMaxJamLengthInMeters="0.00" maxJamLengthInVehicles="0" maxJamLengthInMeters="0.00" jamLengthInVehiclesSum="0" jamLengthInMetersSum="0.00" meanHaltingDuration="0.00" maxHaltingDuration="0.00" haltingDurationSum="0.00" meanIntervalHaltingDuration="0.00" maxIntervalHaltingDuration="0.00" intervalHaltingDurationSum="0.00" startedHalts="0.00" meanVehicleNumber="0.00" maxVehicleNumber="0" />
   <interval begin="73.00" end="79.00" id="3" sampledSeconds="12.00" nVehEntered="0" nVehLeft="0" nVehSeen="2" meanSpeed="0.02" meanTimeLoss="6.00" meanOccupancy="14.00" maxOccupancy="14.00" meanMaxJamLengthInVehicles="1.83" meanMaxJamLengthInMeters="15.34" maxJamLengthInVehicles="2" maxJamLengthInMeters="17.04" jamLengthInVehiclesSum="11" jamLengthInMetersSum="92.06" meanHaltingDuration="13.50" maxHaltingDuration="21.00" haltingDurationSum="27.00" meanIntervalHaltingDuration="6.00" maxIntervalHaltingDuration="6.00" intervalHaltingDurationSum="12.00" startedHalts="1.00" meanVehicleNumber="2.00" maxVehicleNumber="2" />
   <interval begin="79.00" end="91.00" id="0" sampledSeconds="10.35" nVehEntered="1" nVehLeft="0" nVehSeen="1" meanSpeed="9.57" meanTimeLoss="4.41" meanOccupancy="4.58" maxOccupancy="5.00" meanMaxJamLengthInVehicles="0.17" meanMaxJamLengthInMeters="0.83" maxJamLengthInVehicles="1" maxJamLengthInMeters="5.00" jamLengthInVehiclesSum="2" jamLengthInMetersSum="10.00" meanHaltingDuration="3.00" maxHaltingDuration="3.00" haltingDurationSum="3.00" meanIntervalHaltingDuration="3.00" maxIntervalHaltingDuration="3.00" intervalHaltingDurationSum="3.00" startedHalts="1.00" meanVehicleNumber="0.92" maxVehicleNumber="1" />
   <interval begin="79.00" end="91.00" id="1" sampledSeconds="41.30" nVehEntered="2" nVehLeft="0" nVehSeen="4" meanSpeed="4.26" meanTimeLoss="7.68" meanOccupancy="17.50" maxOccupancy="20.00" meanMaxJamLengthInVehicles="2.00" meanMaxJamLengthInMeters="12.50" maxJamLengthInVehicles="3" maxJamLengthInMeters="20.00" jamLengthInVehiclesSum="24" jamLengthInMetersSum="150.01" meanHaltingDuration="9.33" maxHaltingDuration="14.00" haltingDurationSum="28.00" meanIntervalHaltingDuration="8.67" maxIntervalHaltingDuration="12.00" intervalHaltingDurationSum="26.00" startedHalts="2.00" meanVehicleNumber="3.50" maxVehicleNumber="4" />
   <interval begin="79.00" end="91.00" id="2" sampledSeconds="0.00" nVehEntered="0" nVehLeft="0" nVehSeen="0" meanSpeed="-1.00" meanTimeLoss="-1.00" meanOccupancy="0.00" maxOccupancy="0.00" meanMaxJamLengthInVehicles="0.00" meanMaxJamLengthInMeters="0.00" maxJamLengthInVehicles="0" maxJamLengthInMeters="0.00" jamLengthInVehiclesSum="0" jamLengthInMetersSum="0.00" meanHaltingDuration="0.00" maxHaltingDuration="0.00" haltingDurationSum="0.00" meanIntervalHaltingDuration="0.00" maxIntervalHaltingDuration="0.00" intervalHaltingDurationSum="0.00" startedHalts="0.00" meanVehicleNumber="0.00" maxVehicleNumber="0" />
   <interval begin="79.00" end="91.00" id="3" sampledSeconds="13.65" nVehEntered="0" nVehLeft="2" nVehSeen="2" meanSpeed="1.91" meanTimeLoss="6.03" meanOccupancy="6.09" maxOccupancy="14.00" meanMaxJamLengthInVehicles="0.42" meanMaxJamLengthInMeters="3.55" maxJamLengthInVehicles="2" maxJamLengthInMeters="18.16" jamLengthInVehiclesSum="5" jamLengthInMetersSum="42.59" meanHaltingDuration="16.00" maxHaltingDuration="23.00" haltingDurationSum="32.00" meanIntervalHaltingDuration="2.50" maxIntervalHaltingDuration="3.00" intervalHaltingDurationSum="5.00" startedHalts="0.00" meanVehicleNumber="1.25" maxVehicleNumber="2" />
   <interval begin="91.00" end="97.00" id="0" sampledSeconds="9.47" nVehEntered="1" nVehLeft="0" nVehSeen="2" meanSpeed="6.04" meanTimeLoss="3.02" meanOccupancy="8.33" maxOccupancy="10.00" meanMaxJamLengthInVehicles="1.00" meanMaxJamLengthInMeters="5.00" maxJamLengthInVehicles="1" maxJamLengthInMeters="5.00" jamLengthInVehiclesSum="6" jamLengthInMetersSum="30.00" meanHaltingDuration="9.00" maxHaltingDuration="9.00" haltingDurationSum="9.00" meanIntervalHaltingDuration="6.00" maxIntervalHaltingDuration="6.00" intervalHaltingDurationSum="6.00" startedHalts="0.00" meanVehicleNumber="1.67" maxVehicleNumber="2" />
   <interval begin="91.00" end="97.00" id="1" sampledSeconds="29.52" nVehEntered="1" nVehLeft="0" nVehSeen="5" meanSpeed="2.40" meanTimeLoss="5.05" meanOccupancy="25.00" maxOccupancy="25.00" meanMaxJamLengthInVehicles="3.67" meanMaxJamLengthInMeters="25.00" maxJamLengthInVehicles="4" maxJamLengthInMeters="27.51" jamLengthInVehiclesSum="22" jamLengthInMetersSum="150.03" meanHaltingDuration="12.75" maxHaltingDuration="20.00" haltingDurationSum="51.00" meanIntervalHaltingDuration="5.75" maxIntervalHaltingDuration="6.00" intervalHaltingDurationSum="23.00" startedHalts="1.00" meanVehicleNumber="5.00" maxVehicleNumber="5" />
   <interval begin="91.00" end="97.00" id="2" sampledSeconds="0.00" nVehEntered="0" nVehLeft="0" nVehSeen="0" meanSpeed="-1.00" meanTimeLoss="-1.00" meanOccupancy="0.00" maxOccupancy="0.00" meanMaxJamLengthInVehicles="0.00" meanMaxJamLengthInMeters="0.00" maxJamLengthInVehicles="0" maxJamLengthInMeters="0.00" jamLengthInVehiclesSum="0" jamLengthInMetersSum="0.00" meanHaltingDuration="0.00" maxHaltingDuration="0.00" haltingDurationSum="0.00" meanIntervalHaltingDuration="0.00" maxIntervalHaltingDuration="0.00" intervalHaltingDurationSum="0.00" startedHalts="0.00" meanVehicleNumber="0.00" maxVehicleNumber="0" />
   <interval begin="91.00" end="97.00" id="3" sampledSeconds="0.00" nVehEntered="0" nVehLeft="0" nVehSeen="0" meanSpeed="-1.00" meanTimeLoss="-1.00" meanOccupancy="0.00" maxOccupancy="0.00" meanMaxJamLengthInVehicles="0.00" meanMaxJamLengthInMeters="0.00" maxJamLengthInVehicles="0" maxJamLengthInMeters="0.00" jamLengthInVehiclesSum="0" jamLengthInMetersSum="0.00" meanHaltingDuration="0.00" maxHaltingDuration="0.00" haltingDurationSum="0.00" meanIntervalHaltingDuration="0.00" maxIntervalHaltingDuration="0.00" intervalHaltingDurationSum="0.00" startedHalts="0.00" meanVehicleNumber="0.00" maxVehicleNumber="0" />
   <interval begin="97.00" end="181.00" id="0" sampledSeconds="59.37" nVehEntered="7" nVehLeft="9" nVehSeen="9" meanSpeed="13.29" meanTimeLoss="1.25" meanOccupancy="3.22" maxOccupancy="13.01" meanMaxJamLengthInVehicles="0.02" meanMaxJamLengthInMeters="0.11" maxJamLengthInVehicles="1" maxJamLengthInMeters="5.00" jamLengthInVehiclesSum="2" jamLengthInMetersSum="9.52" meanHaltingDuration="11.00" maxHaltingDuration="11.00" haltingDurationSum="11.00" meanIntervalHaltingDuration="2.00" maxIntervalHaltingDuration="2.00" intervalHaltingDurationSum="2.00" startedHalts="0.00" meanVehicleNumber="0.80" maxVehicleNumber="3" />
   <interval begin="97.00" end="181.00" id="1" sampledSeconds="77.07" nVehEntered="5" nVehLeft="9" nVehSeen="10" meanSpeed="7.02" meanTimeLoss="4.43" meanOccupancy="4.14" maxOccupancy="25.00" meanMaxJamLengthInVehicles="0.25" meanMaxJamLengthInMeters="1.76" maxJamLengthInVehicles="5" maxJamLengthInMeters="36.94" jamLengthInVehiclesSum="21" jamLengthInMetersSum="147.88" meanHaltingDuration="14.60" maxHaltingDuration="22.00" haltingDurationSum="73.00" meanIntervalHaltingDuration="4.40" maxIntervalHaltingDuration="7.00" intervalHaltingDurationSum="22.00" startedHalts="1.00" meanVehicleNumber="0.96" maxVehicleNumber="5" />
   <interval begin="97.00" end="181.00" id="2" sampledSeconds="0.00" nVehEntered="0" nVehLeft="0" nVehSeen="0" meanSpeed="-1.00" meanTimeLoss="-1.00" meanOccupancy="0.00" maxOccupancy="0.00" meanMaxJamLengthInVehicles="0.00" meanMaxJamLengthInMeters="0.00" maxJamLengthInVehicles="0" maxJamLengthInMeters="0.00" jamLengthInVehiclesSum="0" jamLengthInMetersSum="0.00" meanHaltingDuration="0.00" maxHaltingDuration="0.00" haltingDurationSum="0.00" meanIntervalHaltingDuration="0.00" maxIntervalHaltingDuration="0.00" intervalHaltingDurationSum="0.00" startedHalts="0.00" meanVehicleNumber="0.00" maxVehicleNumber="0" />
   <interval begin="97.00" end="181.00" id="3" sampledSeconds="124.80" nVehEntered="3" nVehLeft="0" nVehSeen="3" meanSpeed="2.14" meanTimeLoss="37.02" meanOccupancy="10.47" maxOccupancy="21.00" meanMaxJamLengthInVehicles="1.21" meanMaxJamLengthInMeters="10.47" maxJamLengthInVehicles="3" maxJamLengthInMeters="27.00" jamLengthInVehiclesSum="102" jamLengthInMetersSum="879.07" meanHaltingDuration="35.00" maxHaltingDuration="48.00" haltingDurationSum="105.00" meanIntervalHaltingDuration="35.00" maxIntervalHaltingDuration="48.00" intervalHaltingDurationSum="105.00" startedHalts="3.00" meanVehicleNumber="1.51" maxVehicleNumber="3" />
   <interval begin="181.00" end="187.00" id="0" sampledSeconds="2.97" nVehEntered="1" nVehLeft="0" nVehSeen="1" meanSpeed="16.41" meanTimeLoss="0.05" meanOccupancy="2.50" maxOccupancy="5.00" meanMaxJamLengthInVehicles="0.00" meanMaxJamLengthInMeters="0.00" maxJamLengthInVehicles="0" maxJamLengthInMeters="0.00" jamLengthInVehiclesSum="0" jamLengthInMetersSum="0.00" meanHaltingDuration="0.00" maxHaltingDuration="0.00" haltingDurationSum="0.00" meanIntervalHaltingDuration="0.00" maxIntervalHaltingDuration="0.00" intervalHaltingDurationSum="0.00" startedHalts="0.00" meanVehicleNumber="0.50" maxVehicleNumber="1" />
   <interval begin="181.00" end="187.00" id="1" sampledSeconds="7.32" nVehEntered="1" nVehLeft="0" nVehSeen="2" meanSpeed="14.07" meanTimeLoss="0.57" meanOccupancy="6.67" maxOccupancy="10.00" meanMaxJamLengthInVehicles="0.00" meanMaxJamLengthInMeters="0.00" maxJamLengthInVehicles="0" maxJamLengthInMeters="0.00" jamLengthInVehiclesSum="0" jamLengthInMetersSum="0.00" meanHaltingDuration="0.00" maxHaltingDuration="0.00" haltingDurationSum="0.00" meanIntervalHaltingDuration="0.00" maxIntervalHaltingDuration="0.00" intervalHaltingDurationSum="0.00" startedHalts="0.00" meanVehicleNumber="1.33" maxVehicleNumber="2" />
   <interval begin="181.00" end="187.00" id="2" sampledSeconds="0.00" nVehEntered="0" nVehLeft="0" nVehSeen="0" meanSpeed="-1.00" meanTimeLoss="-1.00" meanOccupancy="0.00" maxOccupancy="0.00" meanMaxJamLengthInVehicles="0.00" meanMaxJamLengthInMeters="0.00" maxJamLengthInVehicles="0" maxJamLengthInMeters="0.00" jamLengthInVehiclesSum="0" jamLengthInMetersSum="0.00" meanHaltingDuration="0.00" maxHaltingDuration="0.00" haltingDurationSum="0.00" meanIntervalHaltingDuration="0.00" maxIntervalHaltingDuration="0.00" intervalHaltingDurationSum="0.00" startedHalts="0.00" meanVehicleNumber="0.00" maxVehicleNumber="0" />
   <interval begin="181.00" end="187.00" id="3" sampledSeconds="18.00" nVehEntered="0" nVehLeft="0" nVehSeen="3" meanSpeed="0.00" meanTimeLoss="6.00" meanOccupancy="21.00" maxOccupancy="21.00" meanMaxJamLengthInVehicles="3.00" meanMaxJamLengthInMeters="27.00" maxJamLengthInVehicles="3" maxJamLengthInMeters="27.00" jamLengthInVehiclesSum="18" jamLengthInMetersSum="162.01" meanHaltingDuration="41.00" maxHaltingDuration="54.00" haltingDurationSum="123.00" meanIntervalHaltingDuration="6.00" maxIntervalHaltingDuration="6.00" intervalHaltingDurationSum="18.00" startedHalts="0.00" meanVehicleNumber="3.00" maxVehicleNumber="3" />
   <interval begin="187.00" end="199.00" id="0" sampledSeconds="12.00" nVehEntered="0" nVehLeft="0" nVehSeen="1" meanSpeed="4.19" meanTimeLoss="8.99" meanOccupancy="5.00" maxOccupancy="5.00" meanMaxJamLengthInVehicles="0.50" meanMaxJamLengthInMeters="2.50" maxJamLengthInVehicles="1" maxJamLengthInMeters="5.00" jamLengthInVehiclesSum="6" jamLengthInMetersSum="30.00" meanHaltingDuration="7.00" maxHaltingDuration="7.00" haltingDurationSum="7.00" meanIntervalHaltingDuration="7.00" maxIntervalHaltingDuration="7.00" intervalHaltingDurationSum="7.00" startedHalts="1.00" meanVehicleNumber="1.00" maxVehicleNumber="1" />
   <interval begin="187.00" end="199.00" id="1" sampledSeconds="26.99" nVehEntered="1" nVehLeft="0" nVehSeen="3" meanSpeed="4.49" meanTimeLoss="6.57" meanOccupancy="11.25" maxOccupancy="15.00" meanMaxJamLengthInVehicles="1.25" meanMaxJamLengthInMeters="7.29" maxJamLengthInVehicles="2" maxJamLengthInMeters="12.50" jamLengthInVehiclesSum="15" jamLengthInMetersSum="87.51" meanHaltingDuration="8.50" maxHaltingDuration="11.00" haltingDurationSum="17.00" meanIntervalHaltingDuration="8.50" maxIntervalHaltingDuration="11.00" intervalHaltingDurationSum="17.00" startedHalts="2.00" meanVehicleNumber="2.25" maxVehicleNumber="3" />
   <interval begin="187.00" end="199.00" id="2" sampledSeconds="0.00" nVehEntered="0" nVehLeft="0" nVehSeen="0" meanSpeed="-1.00" meanTimeLoss="-1.00" meanOccupancy="0.00" maxOccupancy="0.00" meanMaxJamLengthInVehicles="0.00" meanMaxJamLengthInMeters="0.00" maxJamLengthInVehicles="0" maxJamLengthInMeters="0.00" jamLengthInVehiclesSum="0" jamLengthInMetersSum="0.00" meanHaltingDuration="0.00" maxHaltingDuration="0.00" haltingDurationSum="0.00" meanIntervalHaltingDuration="0.00" maxIntervalHaltingDuration="0.00" intervalHaltingDurationSum="0.00" startedHalts="0.00" meanVehicleNumber="0.00" maxVehicleNumber="0" />
   <interval begin="187.00" end="199.00" id="3" sampledSeconds="25.19" nVehEntered="0" nVehLeft="3" nVehSeen="3" meanSpeed="2.14" meanTimeLoss="7.35" meanOccupancy="12.13" maxOccupancy="21.00" meanMaxJamLengthInVehicles="0.75" meanMaxJamLengthInMeters="6.79" maxJamLengthInVehicles="3" maxJamLengthInMeters="28.71" jamLengthInVehiclesSum="9" jamLengthInMetersSum="81.45" meanHaltingDuration="44.00" maxHaltingDuration="56.00" haltingDurationSum="132.00" meanIntervalHaltingDuration="3.00" maxIntervalHaltingDuration="4.00" intervalHaltingDurationSum="9.00" startedHalts="0.00" meanVehicleNumber="2.17" maxVehicleNumber="3" />
   <interval begin="199.00" end="205.00" id="0" sampledSeconds="6.00" nVehEntered="0" nVehLeft="0" nVehSeen="1" meanSpeed="0.00" meanTimeLoss="6.00" meanOccupancy="5.00" maxOccupancy="5.00" meanMaxJamLengthInVehicles="1.00" meanMaxJamLengthInMeters="5.00" maxJamLengthInVehicles="1" maxJamLengthInMeters="5.00" jamLengthInVehiclesSum="6" jamLengthInMetersSum="30.00" meanHaltingDuration="13.00" maxHaltingDuration="13.00" haltingDurationSum="13.00" meanIntervalHaltingDuration="6.00" maxIntervalHaltingDuration="6.00" intervalHaltingDurationSum="6.00" startedHalts="0.00" meanVehicleNumber="1.00" maxVehicleNumber="1" />
   <interval begin="199.00" end="205.00" id="1" sampledSeconds="21.60" nVehEntered="1" nVehLeft="0" nVehSeen="4" meanSpeed="4.25" meanTimeLoss="4.02" meanOccupancy="18.33" maxOccupancy="20.00" meanMaxJamLengthInVehicles="2.17" meanMaxJamLengthInMeters="13.75" maxJamLengthInVehicles="3" maxJamLengthInMeters="20.00" jamLengthInVehiclesSum="13" jamLengthInMetersSum="82.51" meanHaltingDuration="10.33" maxHaltingDuration="17.00" haltingDurationSum="31.00" meanIntervalHaltingDuration="4.67" maxIntervalHaltingDuration="6.00" intervalHaltingDurationSum="14.00" startedHalts="1.00" meanVehicleNumber="3.67" maxVehicleNumber="4" />
   <interval begin="199.00" end="205.00" id="2" sampledSeconds="0.00" nVehEntered="0" nVehLeft="0" nVehSeen="0" meanSpeed="-1.00" meanTimeLoss="-1.00" meanOccupancy="0.00" maxOccupancy="0.00" meanMaxJamLengthInVehicles="0.00" meanMaxJamLengthInMeters="0.00" maxJamLengthInVehicles="0" maxJamLengthInMeters="0.00" jamLengthInVehiclesSum="0" jamLengthInMetersSum="0.00" meanHaltingDuration="0.00" maxHaltingDuration="0.00" haltingDurationSum="0.00" meanIntervalHaltingDuration="0.00" maxIntervalHaltingDuration="0.00" intervalHaltingDurationSum="0.00" startedHalts="0.00" meanVehicleNumber="0.00" maxVehicleNumber="0" />
   <interval begin="199.00" end="205.00" id="3" sampledSeconds="0.00" nVehEntered="0" nVehLeft="0" nVehSeen="0" meanSpeed="-1.00" meanTimeLoss="-1.00" meanOccupancy="0.00" maxOccupancy="0.00" meanMaxJamLengthInVehicles="0.00" meanMaxJamLengthInMeters="0.00" maxJamLengthInVehicles="0" maxJamLengthInMeters="0.00" jamLengthInVehiclesSum="0" jamLengthInMetersSum="0.00" meanHaltingDuration="0.00" maxHaltingDuration="0.00" haltingDurationSum="0.00" meanIntervalHaltingDuration="0.00" maxIntervalHaltingDuration="0.00" intervalHaltingDurationSum="0.00" startedHalts="0.00" meanVehicleNumber="0.00" maxVehicleNumber="0" />
   <interval begin="205.00" end="289.00" id="0" sampledSeconds="64.01" nVehEntered="9" nVehLeft="10" nVehSeen="10" meanSpeed="14.86" meanTimeLoss="0.59" meanOccupancy="3.52" maxOccupancy="10.00" meanMaxJamLengthInVehicles="0.02" meanMaxJamLengthInMeters="0.11" maxJamLengthInVehicles="1" maxJamLengthInMeters="5.00" jamLengthInVehiclesSum="2" jamLengthInMetersSum="9.30" meanHaltingDuration="15.00" maxHaltingDuration="15.00" haltingDurationSum="15.00" meanIntervalHaltingDuration="2.00" maxIntervalHaltingDuration="2.00" intervalHaltingDurationSum="2.00" startedHalts="0.00" meanVehicleNumber="0.88" maxVehicleNumber="3" />
   <interval begin="205.00" end="289.00" id="1" sampledSeconds="128.84" nVehEntered="11" nVehLeft="15" nVehSeen="15" meanSpeed="9.65" meanTimeLoss="3.53" meanOccupancy="7.20" maxOccupancy="25.00" meanMaxJamLengthInVehicles="0.14" meanMaxJamLengthInMeters="0.94" maxJamLengthInVehicles="3" maxJamLengthInMeters="21.66" jamLengthInVehiclesSum="12" jamLengthInMetersSum="79.28" meanHaltingDuration="11.00" maxHaltingDuration="19.00" haltingDurationSum="44.00" meanIntervalHaltingDuration="3.25" maxIntervalHaltingDuration="5.00" intervalHaltingDurationSum="13.00" startedHalts="1.00" meanVehicleNumber="1.71" maxVehicleNumber="5" />
   <interval begin="205.00" end="289.00" id="2" sampledSeconds="0.00" nVehEntered="0" nVehLeft="0" nVehSeen="0" meanSpeed="-1.00" meanTimeLoss="-1.00" meanOccupancy="0.00" maxOccupancy="0.00" meanMaxJamLengthInVehicles="0.00" meanMaxJamLengthInMeters="0.00" maxJamLengthInVehicles="0" maxJamLengthInMeters="0.00" jamLengthInVehiclesSum="0" jamLengthInMetersSum="0.00" meanHaltingDuration="0.00" maxHaltingDuration="0.00" haltingDurationSum="0.00" meanIntervalHaltingDuration="0.00" maxIntervalHaltingDuration="0.00" intervalHaltingDurationSum="0.00" startedHalts="0.00" meanVehicleNumber="0.00" maxVehicleNumber="0" />
   <interval begin="205.00" end="289.00" id="3" sampledSeconds="101.07" nVehEntered="3" nVehLeft="0" nVehSeen="3" meanSpeed="2.64" meanTimeLoss="29.11" meanOccupancy="8.50" maxOccupancy="21.00" meanMaxJamLengthInVehicles="0.94" meanMaxJamLengthInMeters="6.83" maxJamLengthInVehicles="3" maxJamLengthInMeters="27.02" jamLengthInVehiclesSum="79" jamLengthInMetersSum="574.09" meanHaltingDuration="27.33" maxHaltingDuration="73.00" haltingDurationSum="82.00" meanIntervalHaltingDuration="27.33" maxIntervalHaltingDuration="73.00" intervalHaltingDurationSum="82.00" startedHalts="3.00" meanVehicleNumber="1.21" maxVehicleNumber="3" />
   <interval begin="289.00" end="295.00" id="0" sampledSeconds="0.00" nVehEntered="0" nVehLeft="0" nVehSeen="0" meanSpeed="-1.00" meanTimeLoss="-1.00" meanOccupancy="0.00" maxOccupancy="0.00" meanMaxJamLengthInVehicles="0.00" meanMaxJamLengthInMeters="0.00" maxJamLengthInVehicles="0" maxJamLengthInMeters="0.00" jamLengthInVehiclesSum="0" jamLengthInMetersSum="0.00" meanHaltingDuration="0.00" maxHaltingDuration="0.00" haltingDurationSum="0.00" meanIntervalHaltingDuration="0.00" maxIntervalHaltingDuration="0.00" intervalHaltingDurationSum="0.00" startedHalts="0.00" meanVehicleNumber="0.00" maxVehicleNumber="0" />
   <interval begin="289.00" end="295.00" id="1" sampledSeconds="0.00" nVehEntered="0" nVehLeft="0" nVehSeen="0" meanSpeed="-1.00" meanTimeLoss="-1.00" meanOccupancy="0.00" maxOccupancy="0.00" meanMaxJamLengthInVehicles="0.00" meanMaxJamLengthInMeters="0.00" maxJamLengthInVehicles="0" maxJamLengthInMeters="0.00" jamLengthInVehiclesSum="0" jamLengthInMetersSum="0.00" meanHaltingDuration="0.00" maxHaltingDuration="0.00" haltingDurationSum="0.00" meanIntervalHaltingDuration="0.00" maxIntervalHaltingDuration="0.00" intervalHaltingDurationSum="0.00" startedHalts="0.00" meanVehicleNumber="0.00" maxVehicleNumber="0" />
   <interval begin="289.00" end="295.00" id="2" sampledSeconds="0.00" nVehEntered="0" nVehLeft="0" nVehSeen="0" meanSpeed="-1.00" meanTimeLoss="-1.00" meanOccupancy="0.00" maxOccupancy="0.00" meanMaxJamLengthInVehicles="0.00" meanMaxJamLengthInMeters="0.00" maxJamLengthInVehicles="0" maxJamLengthInMeters="0.00" jamLengthInVehiclesSum="0" jamLengthInMetersSum="0.00" meanHaltingDuration="0.00" maxHaltingDuration="0.00" haltingDurationSum="0.00" meanIntervalHaltingDuration="0.00" maxIntervalHaltingDuration="0.00" intervalHaltingDurationSum="0.00" startedHalts="0.00" meanVehicleNumber="0.00" maxVehicleNumber="0" />
   <interval begin="289.00" end="295.00" id="3" sampledSeconds="18.00" nVehEntered="0" nVehLeft="0" nVehSeen="3" meanSpeed="0.00" meanTimeLoss="6.00" meanOccupancy="21.00" maxOccupancy="21.00" meanMaxJamLengthInVehicles="3.00" meanMaxJamLengthInMeters="27.00" maxJamLengthInVehicles="3" maxJamLengthInMeters="27.00" jamLengthInVehiclesSum="18" jamLengthInMetersSum="162.01" meanHaltingDuration="33.33" maxHaltingDuration="79.00" haltingDurationSum="100.00" meanIntervalHaltingDuration="6.00" maxIntervalHaltingDuration="6.00" intervalHaltingDurationSum="18.00" startedHalts="0.00" meanVehicleNumber="3.00" maxVehicleNumber="3" />
   <interval begin="295.00" end="307.00" id="0" sampledSeconds="0.00" nVehEntered="0" nVehLeft="0" nVehSeen="0" meanSpeed="-1.00" meanTimeLoss="-1.00" meanOccupancy="0.00" maxOccupancy="0.00" meanMaxJamLengthInVehicles="0.00" meanMaxJamLengthInMeters="0.00" maxJamLengthInVehicles="0" maxJamLengthInMeters="0.00" jamLengthInVehiclesSum="0" jamLengthInMetersSum="0.00" meanHaltingDuration="0.00" maxHaltingDuration="0.00" haltingDurationSum="0.00" meanIntervalHaltingDuration="0.00" maxIntervalHaltingDuration="0.00" intervalHaltingDurationSum="0.00" startedHalts="0.00" meanVehicleNumber="0.00" maxVehicleNumber="0" />
   <interval begin="295.00" end="307.00" id="1" sampledSeconds="0.00" nVehEntered="0" nVehLeft="0" nVehSeen="0" meanSpeed="-1.00" meanTimeLoss="-1.00" meanOccupancy="0.00" maxOccupancy="0.00" meanMaxJamLengthInVehicles="0.00" meanMaxJamLengthInMeters="0.00" maxJamLengthInVehicles="0" maxJamLengthInMeters="0.00" jamLengthInVehiclesSum="0" jamLengthInMetersSum="0.00" meanHaltingDuration="0.00" maxHaltingDuration="0.00" haltingDurationSum="0.00" meanIntervalHaltingDuration="0.00" maxIntervalHaltingDuration="0.00" intervalHaltingDurationSum="0.00" startedHalts="0.00" meanVehicleNumber="0.00" maxVehicleNumber="0" />