<?xml version="1.0" encoding="UTF-8"?>

<!-- generated on Sun Mar  4 16:11:09 2018 by SUMO Version 0.32.0
<?xml version="1.0" encoding="UTF-8"?>

<configuration xmlns:xsi="http://www.w3.org/2001/XMLSchema-instance" xsi:noNamespaceSchemaLocation="http://sumo.dlr.de/xsd/sumoConfiguration.xsd">

    <input>
        <net-file value="data/cross.net.xml"/>
        <route-files value="data/cross.rou.xml"/>
        <additional-files value="data/cross.det.xml,data/cross.det2.xml"/>
    </input>

    <output>
        <tripinfo-output value="qlepisode0_tripinfo.xml"/>
    </output>

    <time>
        <begin value="0"/>
    </time>

    <report>
        <verbose value="true"/>
        <error-log value="errors"/>
        <no-step-log value="true"/>
    </report>

    <traci_server>
        <remote-port value="60591"/>
    </traci_server>

</configuration>
-->

<detector xmlns:xsi="http://www.w3.org/2001/XMLSchema-instance" xsi:noNamespaceSchemaLocation="http://sumo.dlr.de/xsd/det_e2_file.xsd">
   <interval begin="0.00" end="1.00" id="0" sampledSeconds="0.00" nVehEntered="0" nVehLeft="0" nVehSeen="0" meanSpeed="-1.00" meanTimeLoss="-1.00" meanOccupancy="0.00" maxOccupancy="0.00" meanMaxJamLengthInVehicles="0.00" meanMaxJamLengthInMeters="0.00" maxJamLengthInVehicles="0" maxJamLengthInMeters="0.00" jamLengthInVehiclesSum="0" jamLengthInMetersSum="0.00" meanHaltingDuration="0.00" maxHaltingDuration="0.00" haltingDurationSum="0.00" meanIntervalHaltingDuration="0.00" maxIntervalHaltingDuration="0.00" intervalHaltingDurationSum="0.00" startedHalts="0.00" meanVehicleNumber="0.00" maxVehicleNumber="0" />
   <interval begin="0.00" end="1.00" id="1" sampledSeconds="0.00" nVehEntered="0" nVehLeft="0" nVehSeen="0" meanSpeed="-1.00" meanTimeLoss="-1.00" meanOccupancy="0.00" maxOccupancy="0.00" meanMaxJamLengthInVehicles="0.00" meanMaxJamLengthInMeters="0.00" maxJamLengthInVehicles="0" maxJamLengthInMeters="0.00" jamLengthInVehiclesSum="0" jamLengthInMetersSum="0.00" meanHaltingDuration="0.00" maxHaltingDuration="0.00" haltingDurationSum="0.00" meanIntervalHaltingDuration="0.00" maxIntervalHaltingDuration="0.00" intervalHaltingDurationSum="0.00" startedHalts="0.00" meanVehicleNumber="0.00" maxVehicleNumber="0" />
   <interval begin="0.00" end="1.00" id="2" sampledSeconds="0.00" nVehEntered="0" nVehLeft="0" nVehSeen="0" meanSpeed="-1.00" meanTimeLoss="-1.00" meanOccupancy="0.00" maxOccupancy="0.00" meanMaxJamLengthInVehicles="0.00" meanMaxJamLengthInMeters="0.00" maxJamLengthInVehicles="0" maxJamLengthInMeters="0.00" jamLengthInVehiclesSum="0" jamLengthInMetersSum="0.00" meanHaltingDuration="0.00" maxHaltingDuration="0.00" haltingDurationSum="0.00" meanIntervalHaltingDuration="0.00" maxIntervalHaltingDuration="0.00" intervalHaltingDurationSum="0.00" startedHalts="0.00" meanVehicleNumber="0.00" maxVehicleNumber="0" />
   <interval begin="0.00" end="1.00" id="3" sampledSeconds="0.00" nVehEntered="0" nVehLeft="0" nVehSeen="0" meanSpeed="-1.00" meanTimeLoss="-1.00" meanOccupancy="0.00" maxOccupancy="0.00" meanMaxJamLengthInVehicles="0.00" meanMaxJamLengthInMeters="0.00" maxJamLengthInVehicles="0" maxJamLengthInMeters="0.00" jamLengthInVehiclesSum="0" jamLengthInMetersSum="0.00" meanHaltingDuration="0.00" maxHaltingDuration="0.00" haltingDurationSum="0.00" meanIntervalHaltingDuration="0.00" maxIntervalHaltingDuration="0.00" intervalHaltingDurationSum="0.00" startedHalts="0.00" meanVehicleNumber="0.00" maxVehicleNumber="0" />
   <interval begin="1.00" end="7.00" id="0" sampledSeconds="0.00" nVehEntered="0" nVehLeft="0" nVehSeen="0" meanSpeed="-1.00" meanTimeLoss="-1.00" meanOccupancy="0.00" maxOccupancy="0.00" meanMaxJamLengthInVehicles="0.00" meanMaxJamLengthInMeters="0.00" maxJamLengthInVehicles="0" maxJamLengthInMeters="0.00" jamLengthInVehiclesSum="0" jamLengthInMetersSum="0.00" meanHaltingDuration="0.00" maxHaltingDuration="0.00" haltingDurationSum="0.00" meanIntervalHaltingDuration="0.00" maxIntervalHaltingDuration="0.00" intervalHaltingDurationSum="0.00" startedHalts="0.00" meanVehicleNumber="0.00" maxVehicleNumber="0" />
   <interval begin="1.00" end="7.00" id="1" sampledSeconds="0.00" nVehEntered="0" nVehLeft="0" nVehSeen="0" meanSpeed="-1.00" meanTimeLoss="-1.00" meanOccupancy="0.00" maxOccupancy="0.00" meanMaxJamLengthInVehicles="0.00" meanMaxJamLengthInMeters="0.00" maxJamLengthInVehicles="0" maxJamLengthInMeters="0.00" jamLengthInVehiclesSum="0" jamLengthInMetersSum="0.00" meanHaltingDuration="0.00" maxHaltingDuration="0.00" haltingDurationSum="0.00" meanIntervalHaltingDuration="0.00" maxIntervalHaltingDuration="0.00" intervalHaltingDurationSum="0.00" startedHalts="0.00" meanVehicleNumber="0.00" maxVehicleNumber="0" />
   <interval begin="1.00" end="7.00" id="2" sampledSeconds="0.00" nVehEntered="0" nVehLeft="0" nVehSeen="0" meanSpeed="-1.00" meanTimeLoss="-1.00" meanOccupancy="0.00" maxOccupancy="0.00" meanMaxJamLengthInVehicles="0.00" meanMaxJamLengthInMeters="0.00" maxJamLengthInVehicles="0" maxJamLengthInMeters="0.00" jamLengthInVehiclesSum="0" jamLengthInMetersSum="0.00" meanHaltingDuration="0.00" maxHaltingDuration="0.00" haltingDurationSum="0.00" meanIntervalHaltingDuration="0.00" maxIntervalHaltingDuration="0.00" intervalHaltingDurationSum="0.00" startedHalts="0.00" meanVehicleNumber="0.00" maxVehicleNumber="0" />
   <interval begin="1.00" end="7.00" id="3" sampledSeconds="0.00" nVehEntered="0" nVehLeft="0" nVehSeen="0" meanSpeed="-1.00" meanTimeLoss="-1.00" meanOccupancy="0.00" maxOccupancy="0.00" meanMaxJamLengthInVehicles="0.00" meanMaxJamLengthInMeters="0.00" maxJamLengthInVehicles="0" maxJamLengthInMeters="0.00" jamLengthInVehiclesSum="0" jamLengthInMetersSum="0.00" meanHaltingDuration="0.00" maxHaltingDuration="0.00" haltingDurationSum="0.00" meanIntervalHaltingDuration="0.00" maxIntervalHaltingDuration="0.00" intervalHaltingDurationSum="0.00" startedHalts="0.00" meanVehicleNumber="0.00" maxVehicleNumber="0" />
   <interval begin="7.00" end="127.00" id="0" sampledSeconds="371.35" nVehEntered="8" nVehLeft="0" nVehSeen="8" meanSpeed="1.56" meanTimeLoss="42.06" meanOccupancy="15.59" maxOccupancy="40.00" meanMaxJamLengthInVehicles="2.65" meanMaxJamLengthInMeters="18.25" maxJamLengthInVehicles="7" maxJamLengthInMeters="50.03" jamLengthInVehiclesSum="318" jamLengthInMetersSum="2190.45" meanHaltingDuration="46.43" maxHaltingDuration="79.00" haltingDurationSum="325.00" meanIntervalHaltingDuration="46.43" maxIntervalHaltingDuration="79.00" intervalHaltingDurationSum="325.00" startedHalts="7.00" meanVehicleNumber="3.12" maxVehicleNumber="8" />
   <interval begin="7.00" end="127.00" id="1" sampledSeconds="556.06" nVehEntered="10" nVehLeft="0" nVehSeen="10" meanSpeed="1.17" meanTimeLoss="51.69" meanOccupancy="23.33" maxOccupancy="50.00" meanMaxJamLengthInVehicles="4.10" meanMaxJamLengthInMeters="29.09" maxJamLengthInVehicles="9" maxJamLengthInMeters="65.01" jamLengthInVehiclesSum="492" jamLengthInMetersSum="3490.49" meanHaltingDuration="55.67" maxHaltingDuration="81.00" haltingDurationSum="501.00" meanIntervalHaltingDuration="55.67" maxIntervalHaltingDuration="81.00" intervalHaltingDurationSum="501.00" startedHalts="9.00" meanVehicleNumber="4.67" maxVehicleNumber="10" />
   <interval begin="7.00" end="127.00" id="2" sampledSeconds="0.00" nVehEntered="0" nVehLeft="0" nVehSeen="0" meanSpeed="-1.00" meanTimeLoss="-1.00" meanOccupancy="0.00" maxOccupancy="0.00" meanMaxJamLengthInVehicles="0.00" meanMaxJamLengthInMeters="0.00" maxJamLengthInVehicles="0" maxJamLengthInMeters="0.00" jamLengthInVehiclesSum="0" jamLengthInMetersSum="0.00" meanHaltingDuration="0.00" maxHaltingDuration="0.00" haltingDurationSum="0.00" meanIntervalHaltingDuration="0.00" maxIntervalHaltingDuration="0.00" intervalHaltingDurationSum="0.00" startedHalts="0.00" meanVehicleNumber="0.00" maxVehicleNumber="0" />
   <interval begin="7.00" end="127.00" id="3" sampledSeconds="13.47" nVehEntered="3" nVehLeft="2" nVehSeen="3" meanSpeed="18.29" meanTimeLoss="0.13" meanOccupancy="0.73" maxOccupancy="7.00" meanMaxJamLengthInVehicles="0.00" meanMaxJamLengthInMeters="0.00" maxJamLengthInVehicles="0" maxJamLengthInMeters="0.00" jamLengthInVehiclesSum="0" jamLengthInMetersSum="0.00" meanHaltingDuration="0.00" maxHaltingDuration="0.00" haltingDurationSum="0.00" meanIntervalHaltingDuration="0.00" maxIntervalHaltingDuration="0.00" intervalHaltingDurationSum="0.00" startedHalts="0.00" meanVehicleNumber="0.13" maxVehicleNumber="1" />
   <interval begin="127.00" end="133.00" id="0" sampledSeconds="48.00" nVehEntered="0" nVehLeft="0" nVehSeen="8" meanSpeed="0.03" meanTimeLoss="5.99" meanOccupancy="40.00" maxOccupancy="40.00" meanMaxJamLengthInVehicles="7.83" meanMaxJamLengthInMeters="56.26" maxJamLengthInVehicles="8" maxJamLengthInMeters="57.51" jamLengthInVehiclesSum="47" jamLengthInMetersSum="337.55" meanHaltingDuration="46.62" maxHaltingDuration="85.00" haltingDurationSum="373.00" meanIntervalHaltingDuration="6.00" maxIntervalHaltingDuration="6.00" intervalHaltingDurationSum="48.00" startedHalts="1.00" meanVehicleNumber="8.00" maxVehicleNumber="8" />
   <interval begin="127.00" end="133.00" id="1" sampledSeconds="60.00" nVehEntered="0" nVehLeft="0" nVehSeen="10" meanSpeed="0.00" meanTimeLoss="6.00" meanOccupancy="50.00" maxOccupancy="50.00" meanMaxJamLengthInVehicles="9.83" meanMaxJamLengthInMeters="71.26" maxJamLengthInVehicles="10" maxJamLengthInMeters="72.51" jamLengthInVehiclesSum="59" jamLengthInMetersSum="427.56" meanHaltingDuration="56.10" maxHaltingDuration="87.00" haltingDurationSum="561.00" meanIntervalHaltingDuration="6.00" maxIntervalHaltingDuration="6.00" intervalHaltingDurationSum="60.00" startedHalts="1.00" meanVehicleNumber="10.00" maxVehicleNumber="10" />
   <interval begin="127.00" end="133.00" id="2" sampledSeconds="0.00" nVehEntered="0" nVehLeft="0" nVehSeen="0" meanSpeed="-1.00" meanTimeLoss="-1.00" meanOccupancy="0.00" maxOccupancy="0.00" meanMaxJamLengthInVehicles="0.00" meanMaxJamLengthInMeters="0.00" maxJamLengthInVehicles="0" maxJamLengthInMeters="0.00" jamLengthInVehiclesSum="0" jamLengthInMetersSum="0.00" meanHaltingDuration="0.00" maxHaltingDuration="0.00" haltingDurationSum="0.00" meanIntervalHaltingDuration="0.00" maxIntervalHaltingDuration="0.00" intervalHaltingDurationSum="0.00" startedHalts="0.00" meanVehicleNumber="0.00" maxVehicleNumber="0" />
   <interval begin="127.00" end="133.00" id="3" sampledSeconds="6.00" nVehEntered="1" nVehLeft="0" nVehSeen="2" meanSpeed="11.11" meanTimeLoss="1.29" meanOccupancy="7.01" maxOccupancy="7.06" meanMaxJamLengthInVehicles="0.00" meanMaxJamLengthInMeters="0.00" maxJamLengthInVehicles="0" maxJamLengthInMeters="0.00" jamLengthInVehiclesSum="0" jamLengthInMetersSum="0.00" meanHaltingDuration="1.00" maxHaltingDuration="1.00" haltingDurationSum="1.00" meanIntervalHaltingDuration="1.00" maxIntervalHaltingDuration="1.00" intervalHaltingDurationSum="1.00" startedHalts="1.00" meanVehicleNumber="1.17" maxVehicleNumber="2" />
   <interval begin="133.00" end="145.00" id="0" sampledSeconds="90.59" nVehEntered="1" nVehLeft="3" nVehSeen="9" meanSpeed="1.45" meanTimeLoss="9.18" meanOccupancy="36.23" maxOccupancy="40.00" meanMaxJamLengthInVehicles="4.92" meanMaxJamLengthInMeters="36.09" maxJamLengthInVehicles="8" maxJamLengthInMeters="59.24" jamLengthInVehiclesSum="59" jamLengthInMetersSum="433.05" meanHaltingDuration="48.11" maxHaltingDuration="87.00" haltingDurationSum="433.00" meanIntervalHaltingDuration="6.67" maxIntervalHaltingDuration="11.00" intervalHaltingDurationSum="60.00" startedHalts="1.00" meanVehicleNumber="7.75" maxVehicleNumber="9" />
   <interval begin="133.00" end="145.00" id="1" sampledSeconds="113.18" nVehEntered="1" nVehLeft="3" nVehSeen="11" meanSpeed="1.13" meanTimeLoss="9.58" meanOccupancy="45.79" maxOccupancy="50.00" meanMaxJamLengthInVehicles="6.33" meanMaxJamLengthInMeters="46.27" maxJamLengthInVehicles="10" maxJamLengthInMeters="74.36" jamLengthInVehiclesSum="76" jamLengthInMetersSum="555.24" meanHaltingDuration="58.00" maxHaltingDuration="89.00" haltingDurationSum="638.00" meanIntervalHaltingDuration="7.00" maxIntervalHaltingDuration="12.00" intervalHaltingDurationSum="77.00" startedHalts="1.00" meanVehicleNumber="9.67" maxVehicleNumber="11" />
   <interval begin="133.00" end="145.00" id="2" sampledSeconds="0.00" nVehEntered="0" nVehLeft="0" nVehSeen="0" meanSpeed="-1.00" meanTimeLoss="-1.00" meanOccupancy="0.00" maxOccupancy="0.00" meanMaxJamLengthInVehicles="0.00" meanMaxJamLengthInMeters="0.00" maxJamLengthInVehicles="0" maxJamLengthInMeters="0.00" jamLengthInVehiclesSum="0" jamLengthInMetersSum="0.00" meanHaltingDuration="0.00" maxHaltingDuration="0.00" haltingDurationSum="0.00" meanIntervalHaltingDuration="0.00" maxIntervalHaltingDuration="0.00" intervalHaltingDurationSum="0.00" startedHalts="0.00" meanVehicleNumber="0.00" maxVehicleNumber="0" />
   <interval begin="133.00" end="145.00" id="3" sampledSeconds="24.00" nVehEntered="0" nVehLeft="0" nVehSeen="2" meanSpeed="3.71" meanTimeLoss="9.71" meanOccupancy="14.00" maxOccupancy="14.00" meanMaxJamLengthInVehicles="1.42" meanMaxJamLengthInMeters="11.17" maxJamLengthInVehicles="2" maxJamLengthInMeters="17.02" jamLengthInVehiclesSum="17" jamLengthInMetersSum="134.03" meanHaltingDuration="9.50" maxHaltingDuration="13.00" haltingDurationSum="19.00" meanIntervalHaltingDuration="9.00" maxIntervalHaltingDuration="12.00" intervalHaltingDurationSum="18.00" startedHalts="1.00" meanVehicleNumber="2.00" maxVehicleNumber="2" />
   <interval begin="145.00" end="151.00" id="0" sampledSeconds="40.08" nVehEntered="1" nVehLeft="0" nVehSeen="7" meanSpeed="3.03" meanTimeLoss="4.69" meanOccupancy="33.56" maxOccupancy="35.00" meanMaxJamLengthInVehicles="1.67" meanMaxJamLengthInMeters="11.02" maxJamLengthInVehicles="4" maxJamLengthInMeters="28.04" jamLengthInVehiclesSum="10" jamLengthInMetersSum="66.15" meanHaltingDuration="3.17" maxHaltingDuration="5.00" haltingDurationSum="19.00" meanIntervalHaltingDuration="2.50" maxIntervalHaltingDuration="5.00" intervalHaltingDurationSum="15.00" startedHalts="5.00" meanVehicleNumber="6.83" maxVehicleNumber="7" />
   <interval begin="145.00" end="151.00" id="1" sampledSeconds="48.00" nVehEntered="0" nVehLeft="0" nVehSeen="8" meanSpeed="1.86" meanTimeLoss="5.33" meanOccupancy="40.00" maxOccupancy="40.00" meanMaxJamLengthInVehicles="2.67" meanMaxJamLengthInMeters="18.20" maxJamLengthInVehicles="4" maxJamLengthInMeters="27.67" jamLengthInVehiclesSum="18" jamLengthInMetersSum="119.23" meanHaltingDuration="11.75" maxHaltingDuration="50.00" haltingDurationSum="94.00" meanIntervalHaltingDuration="2.88" maxIntervalHaltingDuration="6.00" intervalHaltingDurationSum="23.00" startedHalts="5.00" meanVehicleNumber="8.00" maxVehicleNumber="8" />
   <interval begin="145.00" end="151.00" id="2" sampledSeconds="0.00" nVehEntered="0" nVehLeft="0" nVehSeen="0" meanSpeed="-1.00" meanTimeLoss="-1.00" meanOccupancy="0.00" maxOccupancy="0.00" meanMaxJamLengthInVehicles="0.00" meanMaxJamLengthInMeters="0.00" maxJamLengthInVehicles="0" maxJamLengthInMeters="0.00" jamLengthInVehiclesSum="0" jamLengthInMetersSum="0.00" meanHaltingDuration="0.00" maxHaltingDuration="0.00" haltingDurationSum="0.00" meanIntervalHaltingDuration="0.00" maxIntervalHaltingDuration="0.00" intervalHaltingDurationSum="0.00" startedHalts="0.00" meanVehicleNumber="0.00" maxVehicleNumber="0" />
   <interval begin="145.00" end="151.00" id="3" sampledSeconds="12.00" nVehEntered="0" nVehLeft="0" nVehSeen="2" meanSpeed="0.00" meanTimeLoss="6.00" meanOccupancy="14.00" maxOccupancy="14.00" meanMaxJamLengthInVehicles="2.00" meanMaxJamLengthInMeters="17.00" maxJamLengthInVehicles="2" maxJamLengthInMeters="17.00" jamLengthInVehiclesSum="12" jamLengthInMetersSum="102.01" meanHaltingDuration="15.50" maxHaltingDuration="19.00" haltingDurationSum="31.00" meanIntervalHaltingDuration="6.00" maxIntervalHaltingDuration="6.00" intervalHaltingDurationSum="12.00" startedHalts="0.00" meanVehicleNumber="2.00" maxVehicleNumber="2" />
   <interval begin="151.00" end="163.00" id="0" sampledSeconds="93.15" nVehEntered="2" nVehLeft="0" nVehSeen="9" meanSpeed="0.68" meanTimeLoss="9.93" meanOccupancy="38.95" maxOccupancy="40.74" meanMaxJamLengthInVehicles="6.92" meanMaxJamLengthInMeters="49.59" maxJamLengthInVehicles="8" maxJamLengthInMeters="57.57" jamLengthInVehiclesSum="83" jamLengthInMetersSum="595.04" meanHaltingDuration="12.62" maxHaltingDuration="17.00" haltingDurationSum="101.00" meanIntervalHaltingDuration="10.75" maxIntervalHaltingDuration="12.00" intervalHaltingDurationSum="86.00" startedHalts="3.00" meanVehicleNumber="7.92" maxVehicleNumber="9" />
   <interval begin="151.00" end="163.00" id="1" sampledSeconds="96.00" nVehEntered="0" nVehLeft="0" nVehSeen="8" meanSpeed="0.29" meanTimeLoss="11.79" meanOccupancy="40.00" maxOccupancy="40.00" meanMaxJamLengthInVehicles="7.17" meanMaxJamLengthInMeters="51.33" maxJamLengthInVehicles="8" maxJamLengthInMeters="57.64" jamLengthInVehiclesSum="86" jamLengthInMetersSum="616.01" meanHaltingDuration="13.25" maxHaltingDuration="18.00" haltingDurationSum="106.00" meanIntervalHaltingDuration="11.12" maxIntervalHaltingDuration="12.00" intervalHaltingDurationSum="89.00" startedHalts="3.00" meanVehicleNumber="8.00" maxVehicleNumber="8" />
   <interval begin="151.00" end="163.00" id="2" sampledSeconds="0.00" nVehEntered="0" nVehLeft="0" nVehSeen="0" meanSpeed="-1.00" meanTimeLoss="-1.00" meanOccupancy="0.00" maxOccupancy="0.00" meanMaxJamLengthInVehicles="0.00" meanMaxJamLengthInMeters="0.00" maxJamLengthInVehicles="0" maxJamLengthInMeters="0.00" jamLengthInVehiclesSum="0" jamLengthInMetersSum="0.00" meanHaltingDuration="0.00" maxHaltingDuration="0.00" haltingDurationSum="0.00" meanIntervalHaltingDuration="0.00" maxIntervalHaltingDuration="0.00" intervalHaltingDurationSum="0.00" startedHalts="0.00" meanVehicleNumber="0.00" maxVehicleNumber="0" />
   <interval begin="151.00" end="163.00" id="3" sampledSeconds="17.29" nVehEntered="1" nVehLeft="2" nVehSeen="3" meanSpeed="5.12" meanTimeLoss="4.17" meanOccupancy="8.34" maxOccupancy="14.00" meanMaxJamLengthInVehicles="0.42" meanMaxJamLengthInMeters="3.56" maxJamLengthInVehicles="2" maxJamLengthInMeters="18.24" jamLengthInVehiclesSum="5" jamLengthInMetersSum="42.75" meanHaltingDuration="18.00" maxHaltingDuration="21.00" haltingDurationSum="36.00" meanIntervalHaltingDuration="2.50" maxIntervalHaltingDuration="3.00" intervalHaltingDurationSum="5.00" startedHalts="0.00" meanVehicleNumber="1.58" maxVehicleNumber="2" />
   <interval begin="163.00" end="169.00" id="0" sampledSeconds="54.00" nVehEntered="0" nVehLeft="0" nVehSeen="9" meanSpeed="0.71" meanTimeLoss="5.75" meanOccupancy="45.00" maxOccupancy="45.00" meanMaxJamLengthInVehicles="8.17" meanMaxJamLengthInMeters="58.76" maxJamLengthInVehicles="9" maxJamLengthInMeters="65.01" jamLengthInVehiclesSum="49" jamLengthInMetersSum="352.55" meanHaltingDuration="16.78" maxHaltingDuration="23.00" haltingDurationSum="151.00" meanIntervalHaltingDuration="5.55" maxIntervalHaltingDuration="6.00" intervalHaltingDurationSum="50.00" startedHalts="1.00" meanVehicleNumber="9.00" maxVehicleNumber="9" />
   <interval begin="163.00" end="169.00" id="1" sampledSeconds="48.00" nVehEntered="0" nVehLeft="0" nVehSeen="8" meanSpeed="0.00" meanTimeLoss="6.00" meanOccupancy="40.00" maxOccupancy="40.00" meanMaxJamLengthInVehicles="8.00" meanMaxJamLengthInMeters="57.51" maxJamLengthInVehicles="8" maxJamLengthInMeters="57.51" jamLengthInVehiclesSum="48" jamLengthInMetersSum="345.04" meanHaltingDuration="19.25" maxHaltingDuration="24.00" haltingDurationSum="154.00" meanIntervalHaltingDuration="6.00" maxIntervalHaltingDuration="6.00" intervalHaltingDurationSum="48.00" startedHalts="0.00" meanVehicleNumber="8.00" maxVehicleNumber="8" />
   <interval begin="163.00" end="169.00" id="2" sampledSeconds="0.00" nVehEntered="0" nVehLeft="0" nVehSeen="0" meanSpeed="-1.00" meanTimeLoss="-1.00" meanOccupancy="0.00" maxOccupancy="0.00" meanMaxJamLengthInVehicles="0.00" meanMaxJamLengthInMeters="0.00" maxJamLengthInVehicles="0" maxJamLengthInMeters="0.00" jamLengthInVehiclesSum="0" jamLengthInMetersSum="0.00" meanHaltingDuration="0.00" maxHaltingDuration="0.00" haltingDurationSum="0.00" meanIntervalHaltingDuration="0.00" maxIntervalHaltingDuration="0.00" intervalHaltingDurationSum="0.00" startedHalts="0.00" meanVehicleNumber="0.00" maxVehicleNumber="0" />
   <interval begin="163.00" end="169.00" id="3" sampledSeconds="6.00" nVehEntered="0" nVehLeft="0" nVehSeen="1" meanSpeed="6.09" meanTimeLoss="4.12" meanOccupancy="7.00" maxOccupancy="7.00" meanMaxJamLengthInVehicles="0.17" meanMaxJamLengthInMeters="1.17" maxJamLengthInVehicles="1" maxJamLengthInMeters="7.00" jamLengthInVehiclesSum="1" jamLengthInMetersSum="7.00" meanHaltingDuration="2.00" maxHaltingDuration="2.00" haltingDurationSum="2.00" meanIntervalHaltingDuration="2.00" maxIntervalHaltingDuration="2.00" intervalHaltingDurationSum="2.00" startedHalts="1.00" meanVehicleNumber="1.00" maxVehicleNumber="1" />
   <interval begin="169.00" end="181.00" id="0" sampledSeconds="94.86" nVehEntered="0" nVehLeft="3" nVehSeen="9" meanSpeed="1.08" meanTimeLoss="9.85" meanOccupancy="37.90" maxOccupancy="45.00" meanMaxJamLengthInVehicles="5.17" meanMaxJamLengthInMeters="37.85" maxJamLengthInVehicles="9" maxJamLengthInMeters="66.74" jamLengthInVehiclesSum="62" jamLengthInMetersSum="454.24" meanHaltingDuration="23.67" maxHaltingDuration="26.00" haltingDurationSum="213.00" meanIntervalHaltingDuration="6.89" maxIntervalHaltingDuration="11.00" intervalHaltingDurationSum="62.00" startedHalts="0.00" meanVehicleNumber="8.00" maxVehicleNumber="9" />
   <interval begin="169.00" end="181.00" id="1" sampledSeconds="101.77" nVehEntered="3" nVehLeft="3" nVehSeen="11" meanSpeed="1.78" meanTimeLoss="8.25" meanOccupancy="41.32" maxOccupancy="45.00" meanMaxJamLengthInVehicles="5.00" meanMaxJamLengthInMeters="36.23" maxJamLengthInVehicles="8" maxJamLengthInMeters="59.24" jamLengthInVehiclesSum="60" jamLengthInMetersSum="434.73" meanHaltingDuration="21.60" maxHaltingDuration="26.00" haltingDurationSum="216.00" meanIntervalHaltingDuration="6.20" maxIntervalHaltingDuration="11.00" intervalHaltingDurationSum="62.00" startedHalts="2.00" meanVehicleNumber="8.75" maxVehicleNumber="9" />
   <interval begin="169.00" end="181.00" id="2" sampledSeconds="0.00" nVehEntered="0" nVehLeft="0" nVehSeen="0" meanSpeed="-1.00" meanTimeLoss="-1.00" meanOccupancy="0.00" maxOccupancy="0.00" meanMaxJamLengthInVehicles="0.00" meanMaxJamLengthInMeters="0.00" maxJamLengthInVehicles="0" maxJamLengthInMeters="0.00" jamLengthInVehiclesSum="0" jamLengthInMetersSum="0.00" meanHaltingDuration="0.00" maxHaltingDuration="0.00" haltingDurationSum="0.00" meanIntervalHaltingDuration="0.00" maxIntervalHaltingDuration="0.00" intervalHaltingDurationSum="0.00" startedHalts="0.00" meanVehicleNumber="0.00" maxVehicleNumber="0" />
   <interval begin="169.00" end="181.00" id="3" sampledSeconds="12.00" nVehEntered="0" nVehLeft="0" nVehSeen="1" meanSpeed="0.00" meanTimeLoss="12.00" meanOccupancy="7.00" maxOccupancy="7.00" meanMaxJamLengthInVehicles="1.00" meanMaxJamLengthInMeters="7.00" maxJamLengthInVehicles="1" maxJamLengthInMeters="7.00" jamLengthInVehiclesSum="12" jamLengthInMetersSum="84.00" meanHaltingDuration="14.00" maxHaltingDuration="14.00" haltingDurationSum="14.00" meanIntervalHaltingDuration="12.00" maxIntervalHaltingDuration="12.00" intervalHaltingDurationSum="12.00" startedHalts="0.00" meanVehicleNumber="1.00" maxVehicleNumber="1" />
   <interval begin="181.00" end="187.00" id="0" sampledSeconds="40.43" nVehEntered="1" nVehLeft="0" nVehSeen="7" meanSpeed="2.83" meanTimeLoss="4.79" meanOccupancy="34.17" maxOccupancy="35.00" meanMaxJamLengthInVehicles="1.67" meanMaxJamLengthInMeters="10.93" maxJamLengthInVehicles="4" maxJamLengthInMeters="27.85" jamLengthInVehiclesSum="10" jamLengthInMetersSum="65.57" meanHaltingDuration="3.00" maxHaltingDuration="5.00" haltingDurationSum="15.00" meanIntervalHaltingDuration="3.00" maxIntervalHaltingDuration="5.00" intervalHaltingDurationSum="15.00" startedHalts="5.00" meanVehicleNumber="6.83" maxVehicleNumber="7" />
   <interval begin="181.00" end="187.00" id="1" sampledSeconds="49.32" nVehEntered="1" nVehLeft="0" nVehSeen="9" meanSpeed="2.34" meanTimeLoss="4.71" meanOccupancy="41.57" maxOccupancy="45.00" meanMaxJamLengthInVehicles="2.17" meanMaxJamLengthInMeters="14.06" maxJamLengthInVehicles="4" maxJamLengthInMeters="27.72" jamLengthInVehiclesSum="14" jamLengthInMetersSum="89.38" meanHaltingDuration="3.88" maxHaltingDuration="9.00" haltingDurationSum="31.00" meanIntervalHaltingDuration="2.50" maxIntervalHaltingDuration="5.00" intervalHaltingDurationSum="20.00" startedHalts="6.00" meanVehicleNumber="8.33" maxVehicleNumber="9" />
   <interval begin="181.00" end="187.00" id="2" sampledSeconds="0.00" nVehEntered="0" nVehLeft="0" nVehSeen="0" meanSpeed="-1.00" meanTimeLoss="-1.00" meanOccupancy="0.00" maxOccupancy="0.00" meanMaxJamLengthInVehicles="0.00" meanMaxJamLengthInMeters="0.00" maxJamLengthInVehicles="0" maxJamLengthInMeters="0.00" jamLengthInVehiclesSum="0" jamLengthInMetersSum="0.00" meanHaltingDuration="0.00" maxHaltingDuration="0.00" haltingDurationSum="0.00" meanIntervalHaltingDuration="0.00" maxIntervalHaltingDuration="0.00" intervalHaltingDurationSum="0.00" startedHalts="0.00" meanVehicleNumber="0.00" maxVehicleNumber="0" />
   <interval begin="181.00" end="187.00" id="3" sampledSeconds="6.00" nVehEntered="0" nVehLeft="0" nVehSeen="1" meanSpeed="0.00" meanTimeLoss="6.00" meanOccupancy="7.00" maxOccupancy="7.00" meanMaxJamLengthInVehicles="1.00" meanMaxJamLengthInMeters="7.00" maxJamLengthInVehicles="1" maxJamLengthInMeters="7.00" jamLengthInVehiclesSum="6" jamLengthInMetersSum="42.00" meanHaltingDuration="20.00" maxHaltingDuration="20.00" haltingDurationSum="20.00" meanIntervalHaltingDuration="6.00" maxIntervalHaltingDuration="6.00" intervalHaltingDurationSum="6.00" startedHalts="0.00" meanVehicleNumber="1.00" maxVehicleNumber="1" />
   <interval begin="187.00" end="271.00" id="0" sampledSeconds="907.31" nVehEntered="7" nVehLeft="0" nVehSeen="14" meanSpeed="0.20" meanTimeLoss="64.03" meanOccupancy="53.52" maxOccupancy="66.49" meanMaxJamLengthInVehicles="10.44" meanMaxJamLengthInMeters="75.29" maxJamLengthInVehicles="14" maxJamLengthInMeters="99.00" jamLengthInVehiclesSum="877" jamLengthInMetersSum="6324.26" meanHaltingDuration="64.36" maxHaltingDuration="89.00" haltingDurationSum="901.00" meanIntervalHaltingDuration="63.28" maxIntervalHaltingDuration="84.00" intervalHaltingDurationSum="886.00" startedHalts="9.00" meanVehicleNumber="10.85" maxVehicleNumber="14" />
   <interval begin="187.00" end="271.00" id="1" sampledSeconds="1102.06" nVehEntered="5" nVehLeft="0" nVehSeen="14" meanSpeed="0.13" meanTimeLoss="78.12" meanOccupancy="63.25" maxOccupancy="66.49" meanMaxJamLengthInVehicles="12.75" meanMaxJamLengthInMeters="90.80" maxJamLengthInVehicles="14" maxJamLengthInMeters="99.00" jamLengthInVehiclesSum="1071" jamLengthInMetersSum="7626.97" meanHaltingDuration="78.21" maxHaltingDuration="89.00" haltingDurationSum="1095.00" meanIntervalHaltingDuration="77.14" maxIntervalHaltingDuration="84.00" intervalHaltingDurationSum="1080.00" startedHalts="9.00" meanVehicleNumber="13.17" maxVehicleNumber="14" />
   <interval begin="187.00" end="271.00" id="2" sampledSeconds="0.00" nVehEntered="0" nVehLeft="0" nVehSeen="0" meanSpeed="-1.00" meanTimeLoss="-1.00" meanOccupancy="0.00" maxOccupancy="0.00" meanMaxJamLengthInVehicles="0.00" meanMaxJamLengthInMeters="0.00" maxJamLengthInVehicles="0" maxJamLengthInMeters="0.00" jamLengthInVehiclesSum="0" jamLengthInMetersSum="0.00" meanHaltingDuration="0.00" maxHaltingDuration="0.00" haltingDurationSum="0.00" meanIntervalHaltingDuration="0.00" maxIntervalHaltingDuration="0.00" intervalHaltingDurationSum="0.00" startedHalts="0.00" meanVehicleNumber="0.00" maxVehicleNumber="0" />
   <interval begin="187.00" end="271.00" id="3" sampledSeconds="11.23" nVehEntered="1" nVehLeft="2" nVehSeen="2" meanSpeed="10.24" meanTimeLoss="2.53" meanOccupancy="0.72" maxOccupancy="7.00" meanMaxJamLengthInVehicles="0.04" meanMaxJamLengthInMeters="0.23" maxJamLengthInVehicles="1" maxJamLengthInMeters="7.00" jamLengthInVehiclesSum="3" jamLengthInMetersSum="19.06" meanHaltingDuration="23.00" maxHaltingDuration="23.00" haltingDurationSum="23.00" meanIntervalHaltingDuration="3.00" maxIntervalHaltingDuration="3.00" intervalHaltingDurationSum="3.00" startedHalts="0.00" meanVehicleNumber="0.15" maxVehicleNumber="1" />
   <interval begin="271.00" end="277.00" id="0" sampledSeconds="84.00" nVehEntered="0" nVehLeft="0" nVehSeen="14" meanSpeed="0.00" meanTimeLoss="6.00" meanOccupancy="66.49" maxOccupancy="66.49" meanMaxJamLengthInVehicles="14.00" meanMaxJamLengthInMeters="99.00" maxJamLengthInVehicles="14" maxJamLengthInMeters="99.00" jamLengthInVehiclesSum="84" jamLengthInMetersSum="593.99" meanHaltingDuration="70.36" maxHaltingDuration="95.00" haltingDurationSum="985.00" meanIntervalHaltingDuration="6.00" maxIntervalHaltingDuration="6.00" intervalHaltingDurationSum="84.00" startedHalts="0.00" meanVehicleNumber="14.00" maxVehicleNumber="14" />
   <interval begin="271.00" end="277.00" id="1" sampledSeconds="84.00" nVehEntered="0" nVehLeft="0" nVehSeen="14" meanSpeed="0.00" meanTimeLoss="6.00" meanOccupancy="66.49" maxOccupancy="66.49" meanMaxJamLengthInVehicles="14.00" meanMaxJamLengthInMeters="99.00" maxJamLengthInVehicles="14" maxJamLengthInMeters="99.00" jamLengthInVehiclesSum="84" jamLengthInMetersSum="593.99" meanHaltingDuration="84.21" maxHaltingDuration="95.00" haltingDurationSum="1179.00" meanIntervalHaltingDuration="6.00" maxIntervalHaltingDuration="6.00" intervalHaltingDurationSum="84.00" startedHalts="0.00" meanVehicleNumber="14.00" maxVehicleNumber="14" />