<?xml version="1.0" encoding="UTF-8"?>

<!-- generated on Thu Mar 15 01:22:05 2018 by SUMO Version 0.32.0
<?xml version="1.0" encoding="UTF-8"?>

<configuration xmlns:xsi="http://www.w3.org/2001/XMLSchema-instance" xsi:noNamespaceSchemaLocation="http://sumo.dlr.de/xsd/sumoConfiguration.xsd">

    <input>
        <net-file value="data/cross.net.xml"/>
        <route-files value="data/cross.rou.xml"/>
        <additional-files value="data/cross.det.xml,data/cross.det2.xml"/>
    </input>

    <output>
        <tripinfo-output value="ql_tripinfo.xml"/>
    </output>

    <time>
        <begin value="0"/>
    </time>

    <report>
        <verbose value="true"/>
        <error-log value="errors"/>
        <no-step-log value="true"/>
    </report>

    <traci_server>
        <remote-port value="54745"/>
    </traci_server>

</configuration>
-->

<detector xmlns:xsi="http://www.w3.org/2001/XMLSchema-instance" xsi:noNamespaceSchemaLocation="http://sumo.dlr.de/xsd/det_e1_file.xsd">
    <interval begin="0.00" end="30.00" id="0" nVehContrib="0" flow="0.00" occupancy="0.00" speed="-1.00" length="-1.00" nVehEntered="0"/>
    <interval begin="30.00" end="60.00" id="0" nVehContrib="1" flow="120.00" occupancy="1.28" speed="18.29" length="7.00" nVehEntered="1"/>
    <interval begin="60.00" end="90.00" id="0" nVehContrib="1" flow="120.00" occupancy="1.34" speed="17.42" length="7.00" nVehEntered="1"/>
    <interval begin="90.00" end="120.00" id="0" nVehContrib="0" flow="0.00" occupancy="0.00" speed="-1.00" length="-1.00" nVehEntered="0"/>
    <interval begin="120.00" end="150.00" id="0" nVehContrib="2" flow="240.00" occupancy="2.69" speed="17.40" length="7.00" nVehEntered="2"/>
    <interval begin="150.00" end="180.00" id="0" nVehContrib="1" flow="120.00" occupancy="1.83" speed="12.78" length="7.00" nVehEntered="1"/>
    <interval begin="180.00" end="210.00" id="0" nVehContrib="0" flow="0.00" occupancy="0.00" speed="-1.00" length="-1.00" nVehEntered="0"/>
    <interval begin="210.00" end="240.00" id="0" nVehContrib="1" flow="120.00" occupancy="1.30" speed="17.98" length="7.00" nVehEntered="1"/>
    <interval begin="240.00" end="270.00" id="0" nVehContrib="0" flow="0.00" occupancy="0.00" speed="-1.00" length="-1.00" nVehEntered="0"/>
    <interval begin="270.00" end="300.00" id="0" nVehContrib="2" flow="240.00" occupancy="3.17" speed="14.98" length="7.00" nVehEntered="2"/>
    <interval begin="300.00" end="330.00" id="0" nVehContrib="1" flow="120.00" occupancy="1.24" speed="18.75" length="7.00" nVehEntered="1"/>
    <interval begin="330.00" end="360.00" id="0" nVehContrib="1" flow="120.00" occupancy="1.38" speed="16.91" length="7.00" nVehEntered="1"/>
    <interval begin="360.00" end="390.00" id="0" nVehContrib="3" flow="360.00" occupancy="34.74" speed="8.00" length="7.00" nVehEntered="4"/>
    <interval begin="390.00" end="420.00" id="0" nVehContrib="3" flow="360.00" occupancy="9.98" speed="8.44" length="7.00" nVehEntered="2"/>
    <interval begin="420.00" end="450.00" id="0" nVehContrib="3" flow="360.00" occupancy="4.04" speed="17.43" length="7.00" nVehEntered="3"/>
    <interval begin="450.00" end="480.00" id="0" nVehContrib="1" flow="120.00" occupancy="1.31" speed="17.84" length="7.00" nVehEntered="1"/>
    <interval begin="480.00" end="510.00" id="0" nVehContrib="2" flow="240.00" occupancy="3.09" speed="15.27" length="7.00" nVehEntered="2"/>
    <interval begin="510.00" end="540.00" id="0" nVehContrib="1" flow="120.00" occupancy="2.52" speed="9.25" length="7.00" nVehEntered="1"/>
    <interval begin="540.00" end="570.00" id="0" nVehContrib="1" flow="120.00" occupancy="84.76" speed="0.29" length="7.00" nVehEntered="2"/>
    <interval begin="570.00" end="600.00" id="0" nVehContrib="1" flow="120.00" occupancy="4.62" speed="3.05" length="7.00" nVehEntered="0"/>
    <interval begin="600.00" end="630.00" id="0" nVehContrib="1" flow="120.00" occupancy="1.20" speed="19.39" length="7.00" nVehEntered="1"/>
    <interval begin="630.00" end="660.00" id="0" nVehContrib="0" flow="0.00" occupancy="0.00" speed="-1.00" length="-1.00" nVehEntered="0"/>
    <interval begin="660.00" end="690.00" id="0" nVehContrib="1" flow="120.00" occupancy="1.31" speed="17.83" length="7.00" nVehEntered="1"/>
    <interval begin="690.00" end="720.00" id="0" nVehContrib="1" flow="120.00" occupancy="1.48" speed="15.77" length="7.00" nVehEntered="1"/>
    <interval begin="720.00" end="750.00" id="0" nVehContrib="1" flow="120.00" occupancy="1.65" speed="14.12" length="7.00" nVehEntered="1"/>
    <interval begin="750.00" end="780.00" id="0" nVehContrib="1" flow="120.00" occupancy="69.65" speed="9.29" length="7.00" nVehEntered="2"/>
    <interval begin="780.00" end="810.00" id="0" nVehContrib="3" flow="360.00" occupancy="61.87" speed="2.62" length="7.00" nVehEntered="2"/>
    <interval begin="810.00" end="840.00" id="0" nVehContrib="3" flow="360.00" occupancy="4.50" speed="15.95" length="7.00" nVehEntered="3"/>
    <interval begin="840.00" end="870.00" id="0" nVehContrib="2" flow="240.00" occupancy="4.62" speed="10.18" length="7.00" nVehEntered="2"/>
    <interval begin="870.00" end="900.00" id="0" nVehContrib="2" flow="240.00" occupancy="2.73" speed="17.25" length="7.00" nVehEntered="2"/>
    <interval begin="900.00" end="930.00" id="0" nVehContrib="0" flow="0.00" occupancy="0.00" speed="-1.00" length="-1.00" nVehEntered="0"/>
    <interval begin="930.00" end="960.00" id="0" nVehContrib="2" flow="240.00" occupancy="27.63" speed="11.64" length="7.00" nVehEntered="3"/>
    <interval begin="960.00" end="990.00" id="0" nVehContrib="3" flow="360.00" occupancy="10.34" speed="12.53" length="7.00" nVehEntered="2"/>
    <interval begin="990.00" end="1020.00" id="0" nVehContrib="2" flow="240.00" occupancy="3.10" speed="15.43" length="7.00" nVehEntered="2"/>
    <interval begin="1020.00" end="1050.00" id="0" nVehContrib="1" flow="120.00" occupancy="1.61" speed="14.48" length="7.00" nVehEntered="1"/>
    <interval begin="1050.00" end="1080.00" id="0" nVehContrib="0" flow="0.00" occupancy="0.00" speed="-1.00" length="-1.00" nVehEntered="0"/>
    <interval begin="1080.00" end="1110.00" id="0" nVehContrib="2" flow="240.00" occupancy="2.65" speed="17.76" length="7.00" nVehEntered="2"/>
    <interval begin="1110.00" end="1140.00" id="0" nVehContrib="0" flow="0.00" occupancy="0.00" speed="-1.00" length="-1.00" nVehEntered="0"/>
    <interval begin="1140.00" end="1170.00" id="0" nVehContrib="3" flow="360.00" occupancy="18.99" speed="8.33" length="7.00" nVehEntered="3"/>
    <interval begin="1170.00" end="1200.00" id="0" nVehContrib="2" flow="240.00" occupancy="3.19" speed="15.59" length="7.00" nVehEntered="2"/>
    <interval begin="1200.00" end="1230.00" id="0" nVehContrib="1" flow="120.00" occupancy="1.21" speed="19.36" length="7.00" nVehEntered="1"/>
    <interval begin="1230.00" end="1260.00" id="0" nVehContrib="0" flow="0.00" occupancy="0.00" speed="-1.00" length="-1.00" nVehEntered="0"/>
    <interval begin="1260.00" end="1290.00" id="0" nVehContrib="1" flow="120.00" occupancy="1.45" speed="16.09" length="7.00" nVehEntered="1"/>
    <interval begin="1290.00" end="1320.00" id="0" nVehContrib="0" flow="0.00" occupancy="0.00" speed="-1.00" length="-1.00" nVehEntered="0"/>
    <interval begin="1320.00" end="1350.00" id="0" nVehContrib="1" flow="120.00" occupancy="1.58" speed="14.72" length="7.00" nVehEntered="1"/>
    <interval begin="1350.00" end="1380.00" id="0" nVehContrib="2" flow="240.00" occupancy="2.55" speed="18.34" length="7.00" nVehEntered="2"/>
    <interval begin="1380.00" end="1410.00" id="0" nVehContrib="2" flow="240.00" occupancy="2.83" speed="16.51" length="7.00" nVehEntered="2"/>
    <interval begin="1410.00" end="1440.00" id="0" nVehContrib="1" flow="120.00" occupancy="1.20" speed="19.36" length="7.00" nVehEntered="1"/>
    <interval begin="1440.00" end="1470.00" id="0" nVehContrib="1" flow="120.00" occupancy="1.30" speed="17.98" length="7.00" nVehEntered="1"/>
    <interval begin="1470.00" end="1500.00" id="0" nVehContrib="2" flow="240.00" occupancy="3.19" speed="14.72" length="7.00" nVehEntered="2"/>
    <interval begin="1500.00" end="1530.00" id="0" nVehContrib="2" flow="240.00" occupancy="3.76" speed="14.09" length="7.00" nVehEntered="2"/>
    <interval begin="1530.00" end="1560.00" id="0" nVehContrib="1" flow="120.00" occupancy="1.22" speed="19.14" length="7.00" nVehEntered="1"/>
    <interval begin="1560.00" end="1590.00" id="0" nVehContrib="2" flow="240.00" occupancy="3.29" speed="14.40" length="7.00" nVehEntered="2"/>
    <interval begin="1590.00" end="1620.00" id="0" nVehContrib="3" flow="360.00" occupancy="7.80" speed="9.09" length="7.00" nVehEntered="3"/>
    <interval begin="1620.00" end="1650.00" id="0" nVehContrib="1" flow="120.00" occupancy="2.38" speed="9.79" length="7.00" nVehEntered="1"/>
    <interval begin="1650.00" end="1680.00" id="0" nVehContrib="3" flow="360.00" occupancy="28.96" speed="3.02" length="7.00" nVehEntered="3"/>
    <interval begin="1680.00" end="1710.00" id="0" nVehContrib="2" flow="240.00" occupancy="2.68" speed="17.58" length="7.00" nVehEntered="2"/>
    <interval begin="1710.00" end="1740.00" id="0" nVehContrib="2" flow="240.00" occupancy="16.51" speed="11.96" length="7.00" nVehEntered="3"/>
    <interval begin="1740.00" end="1770.00" id="0" nVehContrib="4" flow="480.00" occupancy="22.95" speed="4.63" length="7.00" nVehEntered="3"/>
    <interval begin="1770.00" end="1800.00" id="0" nVehContrib="2" flow="240.00" occupancy="2.77" speed="16.91" length="7.00" nVehEntered="2"/>
    <interval begin="1800.00" end="1830.00" id="0" nVehContrib="0" flow="0.00" occupancy="0.00" speed="-1.00" length="-1.00" nVehEntered="0"/>
    <interval begin="1830.00" end="1860.00" id="0" nVehContrib="0" flow="0.00" occupancy="0.00" speed="-1.00" length="-1.00" nVehEntered="0"/>
    <interval begin="1860.00" end="1890.00" id="0" nVehContrib="1" flow="120.00" occupancy="1.79" speed="13.02" length="7.00" nVehEntered="1"/>
    <interval begin="1890.00" end="1920.00" id="0" nVehContrib="2" flow="240.00" occupancy="2.67" speed="17.63" length="7.00" nVehEntered="2"/>
    <interval begin="1920.00" end="1950.00" id="0" nVehContrib="1" flow="120.00" occupancy="1.66" speed="14.06" length="7.00" nVehEntered="1"/>
    <interval begin="1950.00" end="1980.00" id="0" nVehContrib="1" flow="120.00" occupancy="76.62" speed="9.28" length="7.00" nVehEntered="2"/>
    <interval begin="1980.00" end="2010.00" id="0" nVehContrib="3" flow="360.00" occupancy="11.54" speed="12.19" length="7.00" nVehEntered="2"/>
    <interval begin="2010.00" end="2040.00" id="0" nVehContrib="2" flow="240.00" occupancy="4.26" speed="11.31" length="7.00" nVehEntered="2"/>
    <interval begin="2040.00" end="2070.00" id="0" nVehContrib="0" flow="0.00" occupancy="0.00" speed="-1.00" length="-1.00" nVehEntered="0"/>
    <interval begin="2070.00" end="2100.00" id="0" nVehContrib="1" flow="120.00" occupancy="1.51" speed="15.49" length="7.00" nVehEntered="1"/>
    <interval begin="2100.00" end="2130.00" id="0" nVehContrib="2" flow="240.00" occupancy="4.34" speed="11.00" length="7.00" nVehEntered="2"/>
    <interval begin="2130.00" end="2160.00" id="0" nVehContrib="1" flow="120.00" occupancy="1.43" speed="16.35" length="7.00" nVehEntered="1"/>
    <interval begin="2160.00" end="2190.00" id="0" nVehContrib="0" flow="0.00" occupancy="0.00" speed="-1.00" length="-1.00" nVehEntered="0"/>
    <interval begin="2190.00" end="2220.00" id="0" nVehContrib="0" flow="0.00" occupancy="0.00" speed="-1.00" length="-1.00" nVehEntered="0"/>
    <interval begin="2220.00" end="2250.00" id="0" nVehContrib="3" flow="360.00" occupancy="4.52" speed="15.80" length="7.00" nVehEntered="3"/>
    <interval begin="2250.00" end="2280.00" id="0" nVehContrib="2" flow="240.00" occupancy="4.49" speed="10.59" length="7.00" nVehEntered="2"/>
    <interval begin="2280.00" end="2310.00" id="0" nVehContrib="2" flow="240.00" occupancy="28.04" speed="11.54" length="7.00" nVehEntered="3"/>
    <interval begin="2310.00" end="2340.00" id="0" nVehContrib="1" flow="120.00" occupancy="26.89" speed="0.46" length="7.00" nVehEntered="0"/>
    <interval begin="2340.00" end="2370.00" id="0" nVehContrib="2" flow="240.00" occupancy="4.25" speed="11.54" length="7.00" nVehEntered="2"/>
    <interval begin="2370.00" end="2400.00" id="0" nVehContrib="0" flow="0.00" occupancy="0.00" speed="-1.00" length="-1.00" nVehEntered="0"/>
    <interval begin="2400.00" end="2430.00" id="0" nVehContrib="1" flow="120.00" occupancy="1.48" speed="15.75" length="7.00" nVehEntered="1"/>
    <interval begin="2430.00" end="2460.00" id="0" nVehContrib="1" flow="120.00" occupancy="1.63" speed="14.33" length="7.00" nVehEntered="1"/>
    <interval begin="2460.00" end="2490.00" id="0" nVehContrib="0" flow="0.00" occupancy="0.00" speed="-1.00" length="-1.00" nVehEntered="0"/>
    <interval begin="2490.00" end="2520.00" id="0" nVehContrib="3" flow="360.00" occupancy="6.71" speed="15.53" length="7.00" nVehEntered="4"/>
    <interval begin="2520.00" end="2550.00" id="0" nVehContrib="2" flow="240.00" occupancy="9.64" speed="6.24" length="7.00" nVehEntered="1"/>
    <interval begin="2550.00" end="2580.00" id="0" nVehContrib="0" flow="0.00" occupancy="0.00" speed="-1.00" length="-1.00" nVehEntered="0"/>
    <interval begin="2580.00" end="2610.00" id="0" nVehContrib="2" flow="240.00" occupancy="5.34" speed="11.87" length="7.00" nVehEntered="3"/>
    <interval begin="2610.00" end="2640.00" id="0" nVehContrib="1" flow="120.00" occupancy="0.90" speed="10.89" length="7.00" nVehEntered="0"/>
    <interval begin="2640.00" end="2670.00" id="0" nVehContrib="0" flow="0.00" occupancy="0.00" speed="-1.00" length="-1.00" nVehEntered="0"/>
    <interval begin="2670.00" end="2700.00" id="0" nVehContrib="0" flow="0.00" occupancy="0.00" speed="-1.00" length="-1.00" nVehEntered="0"/>
    <interval begin="2700.00" end="2730.00" id="0" nVehContrib="2" flow="240.00" occupancy="2.54" speed="18.40" length="7.00" nVehEntered="2"/>
    <interval begin="2730.00" end="2760.00" id="0" nVehContrib="0" flow="0.00" occupancy="0.00" speed="-1.00" length="-1.00" nVehEntered="0"/>
    <interval begin="2760.00" end="2790.00" id="0" nVehContrib="1" flow="120.00" occupancy="1.21" speed="19.30" length="7.00" nVehEntered="1"/>
    <interval begin="2790.00" end="2820.00" id="0" nVehContrib="0" flow="0.00" occupancy="0.00" speed="-1.00" length="-1.00" nVehEntered="0"/>
    <interval begin="2820.00" end="2850.00" id="0" nVehContrib="1" flow="120.00" occupancy="1.50" speed="15.61" length="7.00" nVehEntered="1"/>
    <interval begin="2850.00" end="2880.00" id="0" nVehContrib="1" flow="120.00" occupancy="1.78" speed="13.14" length="7.00" nVehEntered="1"/>
    <interval begin="2880.00" end="2910.00" id="0" nVehContrib="3" flow="360.00" occupancy="4.47" speed="15.88" length="7.00" nVehEntered="3"/>
    <interval begin="2910.00" end="2940.00" id="0" nVehContrib="2" flow="240.00" occupancy="3.92" speed="12.87" length="7.00" nVehEntered="2"/>
    <interval begin="2940.00" end="2970.00" id="0" nVehContrib="1" flow="120.00" occupancy="1.80" speed="12.97" length="7.00" nVehEntered="1"/>
    <interval begin="2970.00" end="3000.00" id="0" nVehContrib="1" flow="120.00" occupancy="2.45" speed="9.52" length="7.00" nVehEntered="1"/>
    <interval begin="3000.00" end="3030.00" id="0" nVehContrib="0" flow="0.00" occupancy="97.87" speed="-1.00" length="-1.00" nVehEntered="1"/>
    <interval begin="3030.00" end="3060.00" id="0" nVehContrib="0" flow="0.00" occupancy="100.00" speed="-1.00" length="-1.00" nVehEntered="0"/>
    <interval begin="3060.00" end="3090.00" id="0" nVehContrib="3" flow="360.00" occupancy="78.01" speed="2.68" length="7.00" nVehEntered="3"/>
    <interval begin="3090.00" end="3120.00" id="0" nVehContrib="3" flow="360.00" occupancy="79.76" speed="2.58" length="7.00" nVehEntered="2"/>
    <interval begin="3120.00" end="3150.00" id="0" nVehContrib="0" flow="0.00" occupancy="46.48" speed="-1.00" length="-1.00" nVehEntered="1"/>
    <interval begin="3150.00" end="3180.00" id="0" nVehContrib="3" flow="360.00" occupancy="68.15" speed="2.57" length="7.00" nVehEntered="3"/>
    <interval begin="3180.00" end="3210.00" id="0" nVehContrib="2" flow="240.00" occupancy="53.17" speed="2.87" length="7.00" nVehEntered="1"/>
    <interval begin="3210.00" end="3240.00" id="0" nVehContrib="1" flow="120.00" occupancy="51.08" speed="9.22" length="7.00" nVehEntered="2"/>
    <interval begin="3240.00" end="3270.00" id="0" nVehContrib="3" flow="360.00" occupancy="73.05" speed="2.53" length="7.00" nVehEntered="3"/>
    <interval begin="3270.00" end="3300.00" id="0" nVehContrib="3" flow="360.00" occupancy="59.71" speed="2.59" length="7.00" nVehEntered="3"/>
    <interval begin="3300.00" end="3330.00" id="0" nVehContrib="2" flow="240.00" occupancy="55.75" speed="1.73" length="7.00" nVehEntered="1"/>
    <interval begin="3330.00" end="3360.00" id="0" nVehContrib="0" flow="0.00" occupancy="0.00" speed="-1.00" length="-1.00" nVehEntered="0"/>
    <interval begin="3360.00" end="3390.00" id="0" nVehContrib="2" flow="240.00" occupancy="2.66" speed="17.60" length="7.00" nVehEntered="2"/>
    <interval begin="3390.00" end="3420.00" id="0" nVehContrib="1" flow="120.00" occupancy="1.68" speed="13.92" length="7.00" nVehEntered="1"/>
    <interval begin="3420.00" end="3450.00" id="0" nVehContrib="2" flow="240.00" occupancy="2.94" speed="15.90" length="7.00" nVehEntered="2"/>
    <interval begin="3450.00" end="3480.00" id="0" nVehContrib="2" flow="240.00" occupancy="2.94" speed="16.16" length="7.00" nVehEntered="2"/>
    <interval begin="3480.00" end="3510.00" id="0" nVehContrib="2" flow="240.00" occupancy="3.16" speed="14.81" length="7.00" nVehEntered="2"/>
    <interval begin="3510.00" end="3540.00" id="0" nVehContrib="0" flow="0.00" occupancy="0.00" speed="-1.00" length="-1.00" nVehEntered="0"/>
    <interval begin="3540.00" end="3570.00" id="0" nVehContrib="2" flow="240.00" occupancy="2.85" speed="16.51" length="7.00" nVehEntered="2"/>
    <interval begin="3570.00" end="3600.00" id="0" nVehContrib="1" flow="120.00" occupancy="1.82" speed="12.85" length="7.00" nVehEntered="1"/>
    <interval begin="3600.00" end="3630.00" id="0" nVehContrib="0" flow="0.00" occupancy="0.00" speed="-1.00" length="-1.00" nVehEntered="0"/>
    <interval begin="3630.00" end="3660.00" id="0" nVehContrib="1" flow="120.00" occupancy="1.22" speed="19.15" length="7.00" nVehEntered="1"/>
    <interval begin="3660.00" end="3690.00" id="0" nVehContrib="3" flow="360.00" occupancy="4.58" speed="15.67" length="7.00" nVehEntered="3"/>
    <interval begin="3690.00" end="3720.00" id="0" nVehContrib="2" flow="240.00" occupancy="2.56" speed="18.28" length="7.00" nVehEntered="2"/>
    <interval begin="3720.00" end="3750.00" id="0" nVehContrib="2" flow="240.00" occupancy="4.06" speed="11.86" length="7.00" nVehEntered="2"/>
    <interval begin="3750.00" end="3780.00" id="0" nVehContrib="3" flow="360.00" occupancy="23.46" speed="13.39" length="7.00" nVehEntered="4"/>
    <interval begin="3780.00" end="3810.00" id="0" nVehContrib="2" flow="240.00" occupancy="11.02" speed="6.82" length="7.00" nVehEntered="1"/>
    <interval begin="3810.00" end="3840.00" id="0" nVehContrib="1" flow="120.00" occupancy="1.29" speed="18.02" length="7.00" nVehEntered="1"/>
    <interval begin="3840.00" end="3870.00" id="0" nVehContrib="1" flow="120.00" occupancy="1.33" speed="17.52" length="7.00" nVehEntered="1"/>
    <interval begin="3870.00" end="3900.00" id="0" nVehContrib="2" flow="240.00" occupancy="19.00" speed="10.83" length="7.00" nVehEntered="3"/>
    <interval begin="3900.00" end="3930.00" id="0" nVehContrib="5" flow="600.00" occupancy="71.41" speed="3.85" length="7.00" nVehEntered="4"/>
    <interval begin="3930.00" end="3960.00" id="0" nVehContrib="2" flow="240.00" occupancy="2.44" speed="19.11" length="7.00" nVehEntered="2"/>
    <interval begin="3960.00" end="3990.00" id="0" nVehContrib="2" flow="240.00" occupancy="3.08" speed="15.35" length="7.00" nVehEntered="2"/>
    <interval begin="3990.00" end="4020.00" id="0" nVehContrib="1" flow="120.00" occupancy="49.78" speed="9.54" length="7.00" nVehEntered="2"/>
    <interval begin="4020.00" end="4050.00" id="0" nVehContrib="2" flow="240.00" occupancy="10.78" speed="7.34" length="7.00" nVehEntered="1"/>
    <interval begin="4050.00" end="4080.00" id="0" nVehContrib="1" flow="120.00" occupancy="35.23" speed="9.32" length="7.00" nVehEntered="2"/>
    <interval begin="4080.00" end="4110.00" id="0" nVehContrib="1" flow="120.00" occupancy="50.29" speed="0.28" length="7.00" nVehEntered="0"/>
    <interval begin="4110.00" end="4140.00" id="0" nVehContrib="2" flow="240.00" occupancy="4.41" speed="10.91" length="7.00" nVehEntered="2"/>
    <interval begin="4140.00" end="4170.00" id="0" nVehContrib="0" flow="0.00" occupancy="0.00" speed="-1.00" length="-1.00" nVehEntered="0"/>
    <interval begin="4170.00" end="4200.00" id="0" nVehContrib="0" flow="0.00" occupancy="63.96" speed="-1.00" length="-1.00" nVehEntered="1"/>
    <interval begin="4200.00" end="4230.00" id="0" nVehContrib="2" flow="240.00" occupancy="49.75" speed="9.64" length="7.00" nVehEntered="1"/>
    <interval begin="4230.00" end="4260.00" id="0" nVehContrib="2" flow="240.00" occupancy="2.51" speed="18.64" length="7.00" nVehEntered="2"/>
    <interval begin="4260.00" end="4290.00" id="0" nVehContrib="0" flow="0.00" occupancy="0.00" speed="-1.00" length="-1.00" nVehEntered="0"/>
    <interval begin="4290.00" end="4320.00" id="0" nVehContrib="3" flow="360.00" occupancy="5.48" speed="13.45" length="7.00" nVehEntered="3"/>
    <interval begin="4320.00" end="4350.00" id="0" nVehContrib="0" flow="0.00" occupancy="0.00" speed="-1.00" length="-1.00" nVehEntered="0"/>
    <interval begin="4350.00" end="4380.00" id="0" nVehContrib="0" flow="0.00" occupancy="79.50" speed="-1.00" length="-1.00" nVehEntered="1"/>
    <interval begin="4380.00" end="4410.00" id="0" nVehContrib="2" flow="240.00" occupancy="10.03" speed="6.74" length="7.00" nVehEntered="1"/>
    <interval begin="4410.00" end="4440.00" id="0" nVehContrib="2" flow="240.00" occupancy="6.46" speed="7.58" length="7.00" nVehEntered="2"/>
    <interval begin="4440.00" end="4470.00" id="0" nVehContrib="3" flow="360.00" occupancy="18.15" speed="7.87" length="7.00" nVehEntered="3"/>
    <interval begin="4470.00" end="4500.00" id="0" nVehContrib="1" flow="120.00" occupancy="1.67" speed="13.94" length="7.00" nVehEntered="1"/>
    <interval begin="4500.00" end="4530.00" id="0" nVehContrib="0" flow="0.00" occupancy="0.00" speed="-1.00" length="-1.00" nVehEntered="0"/>
    <interval begin="4530.00" end="4560.00" id="0" nVehContrib="1" flow="120.00" occupancy="1.20" speed="19.39" length="7.00" nVehEntered="1"/>
    <interval begin="4560.00" end="4590.00" id="0" nVehContrib="0" flow="0.00" occupancy="0.00" speed="-1.00" length="-1.00" nVehEntered="0"/>
    <interval begin="4590.00" end="4620.00" id="0" nVehContrib="2" flow="240.00" occupancy="2.54" speed="18.40" length="7.00" nVehEntered="2"/>
    <interval begin="4620.00" end="4650.00" id="0" nVehContrib="1" flow="120.00" occupancy="1.41" speed="16.52" length="7.00" nVehEntered="1"/>
    <interval begin="4650.00" end="4680.00" id="0" nVehContrib="1" flow="120.00" occupancy="1.86" speed="12.57" length="7.00" nVehEntered="1"/>
    <interval begin="4680.00" end="4710.00" id="0" nVehContrib="2" flow="240.00" occupancy="2.59" speed="18.03" length="7.00" nVehEntered="2"/>
    <interval begin="4710.00" end="4740.00" id="0" nVehContrib="2" flow="240.00" occupancy="9.51" speed="11.20" length="7.00" nVehEntered="3"/>
    <interval begin="4740.00" end="4770.00" id="0" nVehContrib="2" flow="240.00" occupancy="10.31" speed="10.53" length="7.00" nVehEntered="1"/>
    <interval begin="4770.00" end="4800.00" id="0" nVehContrib="0" flow="0.00" occupancy="0.00" speed="-1.00" length="-1.00" nVehEntered="0"/>
    <interval begin="4800.00" end="4830.00" id="0" nVehContrib="0" flow="0.00" occupancy="0.00" speed="-1.00" length="-1.00" nVehEntered="0"/>
    <interval begin="4830.00" end="4860.00" id="0" nVehContrib="0" flow="0.00" occupancy="0.00" speed="-1.00" length="-1.00" nVehEntered="0"/>
    <interval begin="4860.00" end="4890.00" id="0" nVehContrib="2" flow="240.00" occupancy="2.43" speed="19.21" length="7.00" nVehEntered="2"/>
    <interval begin="4890.00" end="4920.00" id="0" nVehContrib="3" flow="360.00" occupancy="4.36" speed="16.41" length="7.00" nVehEntered="3"/>
    <interval begin="4920.00" end="4950.00" id="0" nVehContrib="0" flow="0.00" occupancy="0.00" speed="-1.00" length="-1.00" nVehEntered="0"/>
    <interval begin="4950.00" end="4980.00" id="0" nVehContrib="2" flow="240.00" occupancy="2.77" speed="17.10" length="7.00" nVehEntered="2"/>
    <interval begin="4980.00" end="5010.00" id="0" nVehContrib="2" flow="240.00" occupancy="2.88" speed="16.61" length="7.00" nVehEntered="2"/>
    <interval begin="5010.00" end="5040.00" id="0" nVehContrib="2" flow="240.00" occupancy="2.74" speed="17.05" length="7.00" nVehEntered="2"/>
    <interval begin="5040.00" end="5070.00" id="0" nVehContrib="2" flow="240.00" occupancy="4.22" speed="11.48" length="7.00" nVehEntered="2"/>
    <interval begin="5070.00" end="5100.00" id="0" nVehContrib="1" flow="120.00" occupancy="1.43" speed="16.34" length="7.00" nVehEntered="1"/>
    <interval begin="5100.00" end="5130.00" id="0" nVehContrib="3" flow="360.00" occupancy="6.39" speed="11.13" length="7.00" nVehEntered="3"/>
    <interval begin="5130.00" end="5160.00" id="0" nVehContrib="2" flow="240.00" occupancy="4.35" speed="10.90" length="7.00" nVehEntered="2"/>
    <interval begin="5160.00" end="5190.00" id="0" nVehContrib="2" flow="240.00" occupancy="3.04" speed="15.45" length="7.00" nVehEntered="2"/>
    <interval begin="5190.00" end="5220.00" id="0" nVehContrib="2" flow="240.00" occupancy="3.96" speed="12.87" length="7.00" nVehEntered="2"/>
    <interval begin="5220.00" end="5250.00" id="0" nVehContrib="2" flow="240.00" occupancy="3.75" speed="12.63" length="7.00" nVehEntered="2"/>
    <interval begin="5250.00" end="5280.00" id="0" nVehContrib="0" flow="0.00" occupancy="0.00" speed="-1.00" length="-1.00" nVehEntered="0"/>
    <interval begin="5280.00" end="5310.00" id="0" nVehContrib="1" flow="120.00" occupancy="1.44" speed="16.21" length="7.00" nVehEntered="1"/>
    <interval begin="5310.00" end="5340.00" id="0" nVehContrib="2" flow="240.00" occupancy="2.78" speed="16.86" length="7.00" nVehEntered="2"/>
    <interval begin="5340.00" end="5370.00" id="0" nVehContrib="1" flow="120.00" occupancy="1.48" speed="15.79" length="7.00" nVehEntered="1"/>
    <interval begin="5370.00" end="5400.00" id="0" nVehContrib="3" flow="360.00" occupancy="4.06" speed="17.42" length="7.00" nVehEntered="3"/>
    <interval begin="5400.00" end="5430.00" id="0" nVehContrib="1" flow="120.00" occupancy="1.65" speed="14.16" length="7.00" nVehEntered="1"/>
    <interval begin="5430.00" end="5460.00" id="0" nVehContrib="3" flow="360.00" occupancy="4.44" speed="16.06" length="7.00" nVehEntered="3"/>
    <interval begin="5460.00" end="5490.00" id="0" nVehContrib="2" flow="240.00" occupancy="5.49" speed="8.58" length="7.00" nVehEntered="2"/>
    <interval begin="5490.00" end="5520.00" id="0" nVehContrib="3" flow="360.00" occupancy="4.81" speed="15.28" length="7.00" nVehEntered="3"/>
    <interval begin="5520.00" end="5550.00" id="0" nVehContrib="1" flow="120.00" occupancy="1.79" speed="13.01" length="7.00" nVehEntered="1"/>
    <interval begin="5550.00" end="5580.00" id="0" nVehContrib="0" flow="0.00" occupancy="0.00" speed="-1.00" length="-1.00" nVehEntered="0"/>
    <interval begin="5580.00" end="5610.00" id="0" nVehContrib="3" flow="360.00" occupancy="3.87" speed="18.16" length="7.00" nVehEntered="3"/>
    <interval begin="5610.00" end="5640.00" id="0" nVehContrib="0" flow="0.00" occupancy="0.00" speed="-1.00" length="-1.00" nVehEntered="0"/>
    <interval begin="5640.00" end="5670.00" id="0" nVehContrib="2" flow="240.00" occupancy="2.74" speed="17.21" length="7.00" nVehEntered="2"/>
    <interval begin="5670.00" end="5700.00" id="0" nVehContrib="1" flow="120.00" occupancy="1.63" speed="14.31" length="7.00" nVehEntered="1"/>
    <interval begin="5700.00" end="5730.00" id="0" nVehContrib="4" flow="480.00" occupancy="12.61" speed="8.12" length="7.00" nVehEntered="4"/>
    <interval begin="5730.00" end="5760.00" id="0" nVehContrib="2" flow="240.00" occupancy="70.28" speed="1.87" length="7.00" nVehEntered="2"/>
    <interval begin="5760.00" end="5790.00" id="0" nVehContrib="1" flow="120.00" occupancy="1.57" speed="14.83" length="7.00" nVehEntered="1"/>
    <interval begin="5790.00" end="5820.00" id="0" nVehContrib="0" flow="0.00" occupancy="0.00" speed="-1.00" length="-1.00" nVehEntered="0"/>
    <interval begin="5820.00" end="5850.00" id="0" nVehContrib="1" flow="120.00" occupancy="1.28" speed="18.23" length="7.00" nVehEntered="1"/>
    <interval begin="5850.00" end="5880.00" id="0" nVehContrib="1" flow="120.00" occupancy="1.24" speed="18.76" length="7.00" nVehEntered="1"/>
    <interval begin="5880.00" end="5910.00" id="0" nVehContrib="3" flow="360.00" occupancy="5.52" speed="13.12" length="7.00" nVehEntered="3"/>
    <interval begin="5910.00" end="5940.00" id="0" nVehContrib="0" flow="0.00" occupancy="0.00" speed="-1.00" length="-1.00" nVehEntered="0"/>
    <interval begin="5940.00" end="5970.00" id="0" nVehContrib="1" flow="120.00" occupancy="1.50" speed="15.57" length="7.00" nVehEntered="1"/>
    <interval begin="5970.00" end="6000.00" id="0" nVehContrib="1" flow="120.00" occupancy="1.67" speed="13.99" length="7.00" nVehEntered="1"/>
    <interval begin="6000.00" end="6030.00" id="0" nVehContrib="1" flow="120.00" occupancy="1.27" speed="18.42" length="7.00" nVehEntered="1"/>
    <interval begin="6030.00" end="6060.00" id="0" nVehContrib="1" flow="120.00" occupancy="1.35" speed="17.26" length="7.00" nVehEntered="1"/>