<?xml version="1.0" encoding="UTF-8"?>

<!-- generated on Mon Feb 26 02:53:32 2018 by SUMO Version 0.32.0
<?xml version="1.0" encoding="UTF-8"?>

<configuration xmlns:xsi="http://www.w3.org/2001/XMLSchema-instance" xsi:noNamespaceSchemaLocation="http://sumo.dlr.de/xsd/sumoConfiguration.xsd">

    <input>
        <net-file value="data/cross.net.xml"/>
        <route-files value="data/cross.rou.xml"/>
        <additional-files value="data/cross.det.xml,data/cross.det2.xml"/>
    </input>

    <output>
        <tripinfo-output value="qlepisode3_tripinfo.xml"/>
    </output>

    <time>
        <begin value="0"/>
    </time>

    <report>
        <verbose value="true"/>
        <error-log value="errors"/>
        <no-step-log value="true"/>
    </report>

    <traci_server>
        <remote-port value="54722"/>
    </traci_server>

</configuration>
-->

<tripinfos xmlns:xsi="http://www.w3.org/2001/XMLSchema-instance" xsi:noNamespaceSchemaLocation="http://sumo.dlr.de/xsd/tripinfo_file.xsd">
    <tripinfo id="left_0" depart="0.00" departLane="52o_0" departPos="5.10" departSpeed="0.00" departDelay="0.00" arrival="110.00" arrivalLane="51i_0" arrivalPos="10.00" arrivalSpeed="11.43" duration="110.00" routeLength="1015.10" waitSteps="8" timeLoss="34.09" rerouteNo="0" devices="tripinfo_left_0" vType="typeWE" speedFactor="1.00" vaporized=""/>
    <tripinfo id="right_2" depart="3.00" departLane="51o_0" departPos="5.10" departSpeed="0.00" departDelay="0.00" arrival="110.00" arrivalLane="52i_0" arrivalPos="10.00" arrivalSpeed="11.30" duration="107.00" routeLength="1015.10" waitSteps="5" timeLoss="30.80" rerouteNo="0" devices="tripinfo_right_2" vType="typeWE" speedFactor="1.00" vaporized=""/>
    <tripinfo id="left_1" depart="5.00" departLane="52o_0" departPos="5.10" departSpeed="0.00" departDelay="3.00" arrival="112.00" arrivalLane="51i_0" arrivalPos="10.00" arrivalSpeed="11.40" duration="107.00" routeLength="1015.10" waitSteps="4" timeLoss="31.08" rerouteNo="0" devices="tripinfo_left_1" vType="typeWE" speedFactor="1.00" vaporized=""/>
    <tripinfo id="right_3" depart="8.00" departLane="51o_0" departPos="5.10" departSpeed="0.00" departDelay="4.00" arrival="113.00" arrivalLane="52i_0" arrivalPos="10.00" arrivalSpeed="11.29" duration="105.00" routeLength="1015.10" waitSteps="1" timeLoss="28.39" rerouteNo="0" devices="tripinfo_right_3" vType="typeWE" speedFactor="1.00" vaporized=""/>
    <tripinfo id="right_5" depart="13.00" departLane="51o_0" departPos="5.10" departSpeed="0.00" departDelay="4.00" arrival="114.00" arrivalLane="52i_0" arrivalPos="10.00" arrivalSpeed="11.08" duration="101.00" routeLength="1015.10" waitSteps="0" timeLoss="24.96" rerouteNo="0" devices="tripinfo_right_5" vType="typeWE" speedFactor="1.00" vaporized=""/>
    <tripinfo id="left_4" depart="10.00" departLane="52o_0" departPos="5.10" departSpeed="0.00" departDelay="4.00" arrival="115.00" arrivalLane="51i_0" arrivalPos="10.00" arrivalSpeed="11.53" duration="105.00" routeLength="1015.10" waitSteps="2" timeLoss="28.38" rerouteNo="0" devices="tripinfo_left_4" vType="typeWE" speedFactor="1.00" vaporized=""/>
    <tripinfo id="left_7" depart="22.00" departLane="52o_0" departPos="5.10" departSpeed="0.00" departDelay="0.00" arrival="116.00" arrivalLane="51i_0" arrivalPos="10.00" arrivalSpeed="11.73" duration="94.00" routeLength="1015.10" waitSteps="0" timeLoss="17.99" rerouteNo="0" devices="tripinfo_left_7" vType="typeWE" speedFactor="1.00" vaporized=""/>
    <tripinfo id="left_9" depart="31.00" departLane="52o_0" departPos="5.10" departSpeed="0.00" departDelay="0.00" arrival="122.00" arrivalLane="51i_0" arrivalPos="10.00" arrivalSpeed="11.41" duration="91.00" routeLength="1015.10" waitSteps="0" timeLoss="14.65" rerouteNo="0" devices="tripinfo_left_9" vType="typeWE" speedFactor="1.00" vaporized=""/>
    <tripinfo id="left_10" depart="36.00" departLane="52o_0" departPos="5.10" departSpeed="0.00" departDelay="3.00" arrival="128.00" arrivalLane="51i_0" arrivalPos="10.00" arrivalSpeed="11.39" duration="92.00" routeLength="1015.10" waitSteps="0" timeLoss="15.77" rerouteNo="0" devices="tripinfo_left_10" vType="typeWE" speedFactor="1.00" vaporized=""/>
    <tripinfo id="left_11" depart="41.00" departLane="52o_0" departPos="5.10" departSpeed="0.00" departDelay="0.00" arrival="132.00" arrivalLane="51i_0" arrivalPos="10.00" arrivalSpeed="11.70" duration="91.00" routeLength="1015.10" waitSteps="0" timeLoss="15.03" rerouteNo="0" devices="tripinfo_left_11" vType="typeWE" speedFactor="1.00" vaporized=""/>
    <tripinfo id="down_6" depart="13.00" departLane="54o_0" departPos="7.10" departSpeed="0.00" departDelay="0.00" arrival="147.00" arrivalLane="53i_0" arrivalPos="10.00" arrivalSpeed="11.54" duration="134.00" routeLength="1013.10" waitSteps="32" timeLoss="62.26" rerouteNo="0" devices="tripinfo_down_6" vType="typeNS" speedFactor="1.00" vaporized=""/>
    <tripinfo id="left_13" depart="46.00" departLane="52o_0" departPos="5.10" departSpeed="0.00" departDelay="1.00" arrival="158.00" arrivalLane="51i_0" arrivalPos="10.00" arrivalSpeed="11.45" duration="112.00" routeLength="1015.10" waitSteps="11" timeLoss="35.96" rerouteNo="0" devices="tripinfo_left_13" vType="typeWE" speedFactor="1.00" vaporized=""/>
    <tripinfo id="right_12" depart="42.00" departLane="51o_0" departPos="5.10" departSpeed="0.00" departDelay="0.00" arrival="158.00" arrivalLane="52i_0" arrivalPos="10.00" arrivalSpeed="11.54" duration="116.00" routeLength="1015.10" waitSteps="14" timeLoss="40.00" rerouteNo="0" devices="tripinfo_right_12" vType="typeWE" speedFactor="1.00" vaporized=""/>
    <tripinfo id="right_15" depart="55.00" departLane="51o_0" departPos="5.10" departSpeed="0.00" departDelay="0.00" arrival="160.00" arrivalLane="52i_0" arrivalPos="10.00" arrivalSpeed="11.72" duration="105.00" routeLength="1015.10" waitSteps="2" timeLoss="28.93" rerouteNo="0" devices="tripinfo_right_15" vType="typeWE" speedFactor="1.00" vaporized=""/>
    <tripinfo id="left_14" depart="53.00" departLane="52o_0" departPos="5.10" departSpeed="0.00" departDelay="0.00" arrival="161.00" arrivalLane="51i_0" arrivalPos="10.00" arrivalSpeed="11.77" duration="108.00" routeLength="1015.10" waitSteps="3" timeLoss="31.96" rerouteNo="0" devices="tripinfo_left_14" vType="typeWE" speedFactor="1.00" vaporized=""/>
    <tripinfo id="right_16" depart="61.00" departLane="51o_0" departPos="5.10" departSpeed="0.00" departDelay="0.00" arrival="162.00" arrivalLane="52i_0" arrivalPos="10.00" arrivalSpeed="11.53" duration="101.00" routeLength="1015.10" waitSteps="0" timeLoss="24.90" rerouteNo="0" devices="tripinfo_right_16" vType="typeWE" speedFactor="1.00" vaporized=""/>
    <tripinfo id="right_17" depart="69.00" departLane="51o_0" departPos="5.10" departSpeed="0.00" departDelay="0.00" arrival="164.00" arrivalLane="52i_0" arrivalPos="10.00" arrivalSpeed="11.27" duration="95.00" routeLength="1015.10" waitSteps="0" timeLoss="18.67" rerouteNo="0" devices="tripinfo_right_17" vType="typeWE" speedFactor="1.00" vaporized=""/>
    <tripinfo id="right_18" depart="84.00" departLane="51o_0" departPos="5.10" departSpeed="0.00" departDelay="0.00" arrival="175.00" arrivalLane="52i_0" arrivalPos="10.00" arrivalSpeed="11.76" duration="91.00" routeLength="1015.10" waitSteps="0" timeLoss="15.05" rerouteNo="0" devices="tripinfo_right_18" vType="typeWE" speedFactor="1.00" vaporized=""/>
    <tripinfo id="left_19" depart="85.00" departLane="52o_0" departPos="5.10" departSpeed="0.00" departDelay="0.00" arrival="176.00" arrivalLane="51i_0" arrivalPos="10.00" arrivalSpeed="11.50" duration="91.00" routeLength="1015.10" waitSteps="0" timeLoss="14.39" rerouteNo="0" devices="tripinfo_left_19" vType="typeWE" speedFactor="1.00" vaporized=""/>
    <tripinfo id="down_8" depart="29.00" departLane="54o_0" departPos="7.10" departSpeed="0.00" departDelay="0.00" arrival="199.00" arrivalLane="53i_0" arrivalPos="10.00" arrivalSpeed="11.09" duration="170.00" routeLength="1013.10" waitSteps="62" timeLoss="98.61" rerouteNo="0" devices="tripinfo_down_8" vType="typeNS" speedFactor="1.00" vaporized=""/>
    <tripinfo id="down_20" depart="89.00" departLane="54o_0" departPos="7.10" departSpeed="0.00" departDelay="0.00" arrival="203.00" arrivalLane="53i_0" arrivalPos="10.00" arrivalSpeed="11.72" duration="114.00" routeLength="1013.10" waitSteps="12" timeLoss="41.90" rerouteNo="0" devices="tripinfo_down_20" vType="typeNS" speedFactor="1.00" vaporized=""/>
    <tripinfo id="down_21" depart="96.00" departLane="54o_0" departPos="7.10" departSpeed="0.00" departDelay="0.00" arrival="205.00" arrivalLane="53i_0" arrivalPos="10.00" arrivalSpeed="11.71" duration="109.00" routeLength="1013.10" waitSteps="7" timeLoss="37.46" rerouteNo="0" devices="tripinfo_down_21" vType="typeNS" speedFactor="1.00" vaporized=""/>
    <tripinfo id="left_23" depart="99.00" departLane="52o_0" departPos="5.10" departSpeed="0.00" departDelay="0.00" arrival="218.00" arrivalLane="51i_0" arrivalPos="10.00" arrivalSpeed="11.65" duration="119.00" routeLength="1015.10" waitSteps="18" timeLoss="42.75" rerouteNo="0" devices="tripinfo_left_23" vType="typeWE" speedFactor="1.00" vaporized=""/>
    <tripinfo id="right_22" depart="99.00" departLane="51o_0" departPos="5.10" departSpeed="0.00" departDelay="0.00" arrival="219.00" arrivalLane="52i_0" arrivalPos="10.00" arrivalSpeed="11.37" duration="120.00" routeLength="1015.10" waitSteps="17" timeLoss="43.70" rerouteNo="0" devices="tripinfo_right_22" vType="typeWE" speedFactor="1.00" vaporized=""/>
    <tripinfo id="left_28" depart="131.00" departLane="52o_0" departPos="5.10" departSpeed="0.00" departDelay="0.00" arrival="222.00" arrivalLane="51i_0" arrivalPos="10.00" arrivalSpeed="11.23" duration="91.00" routeLength="1015.10" waitSteps="0" timeLoss="14.82" rerouteNo="0" devices="tripinfo_left_28" vType="typeWE" speedFactor="1.00" vaporized=""/>
    <tripinfo id="right_24" depart="108.00" departLane="51o_0" departPos="5.10" departSpeed="0.00" departDelay="0.00" arrival="222.00" arrivalLane="52i_0" arrivalPos="10.00" arrivalSpeed="11.40" duration="114.00" routeLength="1015.10" waitSteps="10" timeLoss="37.54" rerouteNo="0" devices="tripinfo_right_24" vType="typeWE" speedFactor="1.00" vaporized=""/>
    <tripinfo id="right_25" depart="116.00" departLane="51o_0" departPos="5.10" departSpeed="0.00" departDelay="2.00" arrival="224.00" arrivalLane="52i_0" arrivalPos="10.00" arrivalSpeed="11.67" duration="108.00" routeLength="1015.10" waitSteps="2" timeLoss="31.42" rerouteNo="0" devices="tripinfo_right_25" vType="typeWE" speedFactor="1.00" vaporized=""/>
    <tripinfo id="right_27" depart="125.00" departLane="51o_0" departPos="5.10" departSpeed="0.00" departDelay="0.00" arrival="225.00" arrivalLane="52i_0" arrivalPos="10.00" arrivalSpeed="10.86" duration="100.00" routeLength="1015.10" waitSteps="0" timeLoss="23.99" rerouteNo="0" devices="tripinfo_right_27" vType="typeWE" speedFactor="1.00" vaporized=""/>
    <tripinfo id="left_29" depart="136.00" departLane="52o_0" departPos="5.10" departSpeed="0.00" departDelay="1.00" arrival="229.00" arrivalLane="51i_0" arrivalPos="10.00" arrivalSpeed="11.62" duration="93.00" routeLength="1015.10" waitSteps="0" timeLoss="16.20" rerouteNo="0" devices="tripinfo_left_29" vType="typeWE" speedFactor="1.00" vaporized=""/>
    <tripinfo id="left_30" depart="141.00" departLane="52o_0" departPos="5.10" departSpeed="0.00" departDelay="3.00" arrival="233.00" arrivalLane="51i_0" arrivalPos="10.00" arrivalSpeed="11.39" duration="92.00" routeLength="1015.10" waitSteps="0" timeLoss="15.22" rerouteNo="0" devices="tripinfo_left_30" vType="typeWE" speedFactor="1.00" vaporized=""/>
    <tripinfo id="right_32" depart="145.00" departLane="51o_0" departPos="5.10" departSpeed="0.00" departDelay="0.00" arrival="236.00" arrivalLane="52i_0" arrivalPos="10.00" arrivalSpeed="11.65" duration="91.00" routeLength="1015.10" waitSteps="0" timeLoss="14.21" rerouteNo="0" devices="tripinfo_right_32" vType="typeWE" speedFactor="1.00" vaporized=""/>
    <tripinfo id="left_31" depart="146.00" departLane="52o_0" departPos="5.10" departSpeed="0.00" departDelay="4.00" arrival="238.00" arrivalLane="51i_0" arrivalPos="10.00" arrivalSpeed="11.46" duration="92.00" routeLength="1015.10" waitSteps="0" timeLoss="16.07" rerouteNo="0" devices="tripinfo_left_31" vType="typeWE" speedFactor="1.00" vaporized=""/>
    <tripinfo id="left_33" depart="153.00" departLane="52o_0" departPos="5.10" departSpeed="0.00" departDelay="0.00" arrival="244.00" arrivalLane="51i_0" arrivalPos="10.00" arrivalSpeed="10.88" duration="91.00" routeLength="1015.10" waitSteps="0" timeLoss="14.87" rerouteNo="0" devices="tripinfo_left_33" vType="typeWE" speedFactor="1.00" vaporized=""/>
    <tripinfo id="down_26" depart="122.00" departLane="54o_0" departPos="7.10" departSpeed="0.00" departDelay="0.00" arrival="260.00" arrivalLane="53i_0" arrivalPos="10.00" arrivalSpeed="11.44" duration="138.00" routeLength="1013.10" waitSteps="37" timeLoss="66.61" rerouteNo="0" devices="tripinfo_down_26" vType="typeNS" speedFactor="1.00" vaporized=""/>
    <tripinfo id="down_41" depart="172.00" departLane="54o_0" departPos="7.10" departSpeed="0.00" departDelay="0.00" arrival="262.00" arrivalLane="53i_0" arrivalPos="10.00" arrivalSpeed="11.67" duration="90.00" routeLength="1013.10" waitSteps="0" timeLoss="18.52" rerouteNo="0" devices="tripinfo_down_41" vType="typeNS" speedFactor="1.00" vaporized=""/>
    <tripinfo id="right_37" depart="167.00" departLane="51o_0" departPos="5.10" departSpeed="0.00" departDelay="0.00" arrival="278.00" arrivalLane="52i_0" arrivalPos="10.00" arrivalSpeed="11.85" duration="111.00" routeLength="1015.10" waitSteps="9" timeLoss="34.44" rerouteNo="0" devices="tripinfo_right_37" vType="typeWE" speedFactor="1.00" vaporized=""/>
    <tripinfo id="left_34" depart="158.00" departLane="52o_0" departPos="5.10" departSpeed="0.00" departDelay="2.00" arrival="279.00" arrivalLane="51i_0" arrivalPos="10.00" arrivalSpeed="11.38" duration="121.00" routeLength="1015.10" waitSteps="18" timeLoss="44.47" rerouteNo="0" devices="tripinfo_left_34" vType="typeWE" speedFactor="1.00" vaporized=""/>
    <tripinfo id="right_38" depart="172.00" departLane="51o_0" departPos="5.10" departSpeed="0.00" departDelay="4.00" arrival="280.00" arrivalLane="52i_0" arrivalPos="10.00" arrivalSpeed="11.47" duration="108.00" routeLength="1015.10" waitSteps="6" timeLoss="31.87" rerouteNo="0" devices="tripinfo_right_38" vType="typeWE" speedFactor="1.00" vaporized=""/>
    <tripinfo id="left_35" depart="164.00" departLane="52o_0" departPos="5.10" departSpeed="0.00" departDelay="4.00" arrival="302.00" arrivalLane="51i_0" arrivalPos="10.00" arrivalSpeed="11.42" duration="138.00" routeLength="1015.10" waitSteps="31" timeLoss="61.76" rerouteNo="0" devices="tripinfo_left_35" vType="typeWE" speedFactor="1.00" vaporized=""/>
    <tripinfo id="right_42" depart="177.00" departLane="51o_0" departPos="5.10" departSpeed="0.00" departDelay="1.00" arrival="302.00" arrivalLane="52i_0" arrivalPos="10.00" arrivalSpeed="11.52" duration="125.00" routeLength="1015.10" waitSteps="16" timeLoss="49.24" rerouteNo="0" devices="tripinfo_right_42" vType="typeWE" speedFactor="1.00" vaporized=""/>
    <tripinfo id="left_36" depart="169.00" departLane="52o_0" departPos="5.10" departSpeed="0.00" departDelay="5.00" arrival="304.00" arrivalLane="51i_0" arrivalPos="10.00" arrivalSpeed="11.62" duration="135.00" routeLength="1015.10" waitSteps="28" timeLoss="58.98" rerouteNo="0" devices="tripinfo_left_36" vType="typeWE" speedFactor="1.00" vaporized=""/>
    <tripinfo id="right_43" depart="182.00" departLane="51o_0" departPos="5.10" departSpeed="0.00" departDelay="1.00" arrival="305.00" arrivalLane="52i_0" arrivalPos="10.00" arrivalSpeed="11.52" duration="123.00" routeLength="1015.10" waitSteps="15" timeLoss="46.37" rerouteNo="0" devices="tripinfo_right_43" vType="typeWE" speedFactor="1.00" vaporized=""/>
    <tripinfo id="left_39" depart="175.00" departLane="52o_0" departPos="5.10" departSpeed="0.00" departDelay="6.00" arrival="307.00" arrivalLane="51i_0" arrivalPos="10.00" arrivalSpeed="11.40" duration="132.00" routeLength="1015.10" waitSteps="23" timeLoss="55.49" rerouteNo="0" devices="tripinfo_left_39" vType="typeWE" speedFactor="1.00" vaporized=""/>
    <tripinfo id="right_44" depart="187.00" departLane="51o_0" departPos="5.10" departSpeed="0.00" departDelay="4.00" arrival="307.00" arrivalLane="52i_0" arrivalPos="10.00" arrivalSpeed="11.38" duration="120.00" routeLength="1015.10" waitSteps="14" timeLoss="43.89" rerouteNo="0" devices="tripinfo_right_44" vType="typeWE" speedFactor="1.00" vaporized=""/>
    <tripinfo id="down_55" depart="238.00" departLane="54o_0" departPos="7.10" departSpeed="0.00" departDelay="0.00" arrival="327.00" arrivalLane="53i_0" arrivalPos="10.00" arrivalSpeed="11.35" duration="89.00" routeLength="1013.10" waitSteps="0" timeLoss="17.43" rerouteNo="0" devices="tripinfo_down_55" vType="typeNS" speedFactor="1.00" vaporized=""/>
    <tripinfo id="down_57" depart="244.00" departLane="54o_0" departPos="7.10" departSpeed="0.00" departDelay="2.00" arrival="333.00" arrivalLane="53i_0" arrivalPos="10.00" arrivalSpeed="11.62" duration="89.00" routeLength="1013.10" waitSteps="0" timeLoss="17.32" rerouteNo="0" devices="tripinfo_down_57" vType="typeNS" speedFactor="1.00" vaporized=""/>
    <tripinfo id="left_40" depart="180.00" departLane="52o_0" departPos="5.10" departSpeed="0.00" departDelay="8.00" arrival="350.00" arrivalLane="51i_0" arrivalPos="10.00" arrivalSpeed="11.30" duration="170.00" routeLength="1015.10" waitSteps="53" timeLoss="94.10" rerouteNo="0" devices="tripinfo_left_40" vType="typeWE" speedFactor="1.00" vaporized=""/>
    <tripinfo id="right_48" depart="200.00" departLane="51o_0" departPos="5.10" departSpeed="0.00" departDelay="0.00" arrival="350.00" arrivalLane="52i_0" arrivalPos="10.00" arrivalSpeed="11.81" duration="150.00" routeLength="1015.10" waitSteps="40" timeLoss="73.56" rerouteNo="0" devices="tripinfo_right_48" vType="typeWE" speedFactor="1.00" vaporized=""/>
    <tripinfo id="down_60" depart="283.00" departLane="54o_0" departPos="7.10" departSpeed="0.00" departDelay="0.00" arrival="373.00" arrivalLane="53i_0" arrivalPos="10.00" arrivalSpeed="11.48" duration="90.00" routeLength="1013.10" waitSteps="0" timeLoss="17.74" rerouteNo="0" devices="tripinfo_down_60" vType="typeNS" speedFactor="1.00" vaporized=""/>
    <tripinfo id="left_45" depart="194.00" departLane="52o_0" departPos="5.10" departSpeed="0.00" departDelay="0.00" arrival="386.00" arrivalLane="51i_0" arrivalPos="10.00" arrivalSpeed="11.76" duration="192.00" routeLength="1015.10" waitSteps="73" timeLoss="116.15" rerouteNo="0" devices="tripinfo_left_45" vType="typeWE" speedFactor="1.00" vaporized=""/>
    <tripinfo id="right_50" depart="218.00" departLane="51o_0" departPos="5.10" departSpeed="0.00" departDelay="1.00" arrival="386.00" arrivalLane="52i_0" arrivalPos="10.00" arrivalSpeed="11.36" duration="168.00" routeLength="1015.10" waitSteps="61" timeLoss="92.05" rerouteNo="0" devices="tripinfo_right_50" vType="typeWE" speedFactor="1.00" vaporized=""/>
    <tripinfo id="right_52" depart="229.00" departLane="51o_0" departPos="5.10" departSpeed="0.00" departDelay="1.00" arrival="388.00" arrivalLane="52i_0" arrivalPos="10.00" arrivalSpeed="11.26" duration="159.00" routeLength="1015.10" waitSteps="49" timeLoss="82.79" rerouteNo="0" devices="tripinfo_right_52" vType="typeWE" speedFactor="1.00" vaporized=""/>
    <tripinfo id="down_66" depart="302.00" departLane="54o_0" departPos="7.10" departSpeed="0.00" departDelay="0.00" arrival="392.00" arrivalLane="53i_0" arrivalPos="10.00" arrivalSpeed="11.36" duration="90.00" routeLength="1013.10" waitSteps="0" timeLoss="18.29" rerouteNo="0" devices="tripinfo_down_66" vType="typeNS" speedFactor="1.00" vaporized=""/>
    <tripinfo id="left_46" depart="200.00" departLane="52o_0" departPos="5.10" departSpeed="0.00" departDelay="4.00" arrival="416.00" arrivalLane="51i_0" arrivalPos="10.00" arrivalSpeed="11.21" duration="216.00" routeLength="1015.10" waitSteps="90" timeLoss="140.10" rerouteNo="0" devices="tripinfo_left_46" vType="typeWE" speedFactor="1.00" vaporized=""/>
    <tripinfo id="right_56" depart="240.00" departLane="51o_0" departPos="5.10" departSpeed="0.00" departDelay="0.00" arrival="417.00" arrivalLane="52i_0" arrivalPos="10.00" arrivalSpeed="11.29" duration="177.00" routeLength="1015.10" waitSteps="58" timeLoss="100.84" rerouteNo="0" devices="tripinfo_right_56" vType="typeWE" speedFactor="1.00" vaporized=""/>
    <tripinfo id="left_47" depart="205.00" departLane="52o_0" departPos="5.10" departSpeed="0.00" departDelay="6.00" arrival="419.00" arrivalLane="51i_0" arrivalPos="10.00" arrivalSpeed="11.61" duration="214.00" routeLength="1015.10" waitSteps="86" timeLoss="138.05" rerouteNo="0" devices="tripinfo_left_47" vType="typeWE" speedFactor="1.00" vaporized=""/>
    <tripinfo id="right_61" depart="284.00" departLane="51o_0" departPos="5.10" departSpeed="0.00" departDelay="0.00" arrival="419.00" arrivalLane="52i_0" arrivalPos="10.00" arrivalSpeed="11.57" duration="135.00" routeLength="1015.10" waitSteps="22" timeLoss="58.70" rerouteNo="0" devices="tripinfo_right_61" vType="typeWE" speedFactor="1.00" vaporized=""/>
    <tripinfo id="left_49" depart="212.00" departLane="52o_0" departPos="5.10" departSpeed="0.00" departDelay="0.00" arrival="421.00" arrivalLane="51i_0" arrivalPos="10.00" arrivalSpeed="11.32" duration="209.00" routeLength="1015.10" waitSteps="79" timeLoss="133.10" rerouteNo="0" devices="tripinfo_left_49" vType="typeWE" speedFactor="1.00" vaporized=""/>
    <tripinfo id="right_62" depart="289.00" departLane="51o_0" departPos="5.10" departSpeed="0.00" departDelay="3.00" arrival="421.00" arrivalLane="52i_0" arrivalPos="10.00" arrivalSpeed="11.46" duration="132.00" routeLength="1015.10" waitSteps="18" timeLoss="55.73" rerouteNo="0" devices="tripinfo_right_62" vType="typeWE" speedFactor="1.00" vaporized=""/>
    <tripinfo id="down_67" depart="318.00" departLane="54o_0" departPos="7.10" departSpeed="0.00" departDelay="0.00" arrival="434.00" arrivalLane="53i_0" arrivalPos="10.00" arrivalSpeed="11.69" duration="116.00" routeLength="1013.10" waitSteps="16" timeLoss="44.64" rerouteNo="0" devices="tripinfo_down_67" vType="typeNS" speedFactor="1.00" vaporized=""/>
    <tripinfo id="down_69" depart="331.00" departLane="54o_0" departPos="7.10" departSpeed="0.00" departDelay="0.00" arrival="436.00" arrivalLane="53i_0" arrivalPos="10.00" arrivalSpeed="11.62" duration="105.00" routeLength="1013.10" waitSteps="4" timeLoss="33.69" rerouteNo="0" devices="tripinfo_down_69" vType="typeNS" speedFactor="1.00" vaporized=""/>
    <tripinfo id="down_70" depart="337.00" departLane="54o_0" departPos="7.10" departSpeed="0.00" departDelay="0.00" arrival="439.00" arrivalLane="53i_0" arrivalPos="10.00" arrivalSpeed="11.74" duration="102.00" routeLength="1013.10" waitSteps="0" timeLoss="30.24" rerouteNo="0" devices="tripinfo_down_70" vType="typeNS" speedFactor="1.00" vaporized=""/>
    <tripinfo id="left_51" depart="219.00" departLane="52o_0" departPos="5.10" departSpeed="0.00" departDelay="0.00" arrival="452.00" arrivalLane="51i_0" arrivalPos="10.00" arrivalSpeed="11.57" duration="233.00" routeLength="1015.10" waitSteps="101" timeLoss="156.84" rerouteNo="0" devices="tripinfo_left_51" vType="typeWE" speedFactor="1.00" vaporized=""/>
    <tripinfo id="right_63" depart="294.00" departLane="51o_0" departPos="5.10" departSpeed="0.00" departDelay="6.00" arrival="453.00" arrivalLane="52i_0" arrivalPos="10.00" arrivalSpeed="11.23" duration="159.00" routeLength="1015.10" waitSteps="39" timeLoss="83.25" rerouteNo="0" devices="tripinfo_right_63" vType="typeWE" speedFactor="1.00" vaporized=""/>
    <tripinfo id="down_74" depart="344.00" departLane="54o_0" departPos="7.10" departSpeed="0.00" departDelay="0.00" arrival="465.00" arrivalLane="53i_0" arrivalPos="10.00" arrivalSpeed="11.74" duration="121.00" routeLength="1013.10" waitSteps="16" timeLoss="49.21" rerouteNo="0" devices="tripinfo_down_74" vType="typeNS" speedFactor="1.00" vaporized=""/>
    <tripinfo id="down_76" depart="350.00" departLane="54o_0" departPos="7.10" departSpeed="0.00" departDelay="1.00" arrival="467.00" arrivalLane="53i_0" arrivalPos="10.00" arrivalSpeed="11.70" duration="117.00" routeLength="1013.10" waitSteps="15" timeLoss="45.20" rerouteNo="0" devices="tripinfo_down_76" vType="typeNS" speedFactor="1.00" vaporized=""/>
    <tripinfo id="down_79" depart="377.00" departLane="54o_0" departPos="7.10" departSpeed="0.00" departDelay="0.00" arrival="469.00" arrivalLane="53i_0" arrivalPos="10.00" arrivalSpeed="11.70" duration="92.00" routeLength="1013.10" waitSteps="0" timeLoss="20.18" rerouteNo="0" devices="tripinfo_down_79" vType="typeNS" speedFactor="1.00" vaporized=""/>
    <tripinfo id="down_80" depart="383.00" departLane="54o_0" departPos="7.10" departSpeed="0.00" departDelay="4.00" arrival="472.00" arrivalLane="53i_0" arrivalPos="10.00" arrivalSpeed="11.25" duration="89.00" routeLength="1013.10" waitSteps="0" timeLoss="17.37" rerouteNo="0" devices="tripinfo_down_80" vType="typeNS" speedFactor="1.00" vaporized=""/>
    <tripinfo id="left_53" depart="236.00" departLane="52o_0" departPos="5.10" departSpeed="0.00" departDelay="2.00" arrival="488.00" arrivalLane="51i_0" arrivalPos="10.00" arrivalSpeed="11.66" duration="252.00" routeLength="1015.10" waitSteps="119" timeLoss="176.07" rerouteNo="0" devices="tripinfo_left_53" vType="typeWE" speedFactor="1.00" vaporized=""/>
    <tripinfo id="right_64" depart="299.00" departLane="51o_0" departPos="5.10" departSpeed="0.00" departDelay="8.00" arrival="488.00" arrivalLane="52i_0" arrivalPos="10.00" arrivalSpeed="11.35" duration="189.00" routeLength="1015.10" waitSteps="68" timeLoss="112.38" rerouteNo="0" devices="tripinfo_right_64" vType="typeWE" speedFactor="1.00" vaporized=""/>
    <tripinfo id="left_54" depart="241.00" departLane="52o_0" departPos="5.10" departSpeed="0.00" departDelay="3.00" arrival="490.00" arrivalLane="51i_0" arrivalPos="10.00" arrivalSpeed="11.55" duration="249.00" routeLength="1015.10" waitSteps="113" timeLoss="172.83" rerouteNo="0" devices="tripinfo_left_54" vType="typeWE" speedFactor="1.00" vaporized=""/>
    <tripinfo id="right_65" depart="304.00" departLane="51o_0" departPos="5.10" departSpeed="0.00" departDelay="10.00" arrival="490.00" arrivalLane="52i_0" arrivalPos="10.00" arrivalSpeed="11.49" duration="186.00" routeLength="1015.10" waitSteps="65" timeLoss="109.40" rerouteNo="0" devices="tripinfo_right_65" vType="typeWE" speedFactor="1.00" vaporized=""/>
    <tripinfo id="left_58" depart="272.00" departLane="52o_0" departPos="5.10" departSpeed="0.00" departDelay="0.00" arrival="492.00" arrivalLane="51i_0" arrivalPos="10.00" arrivalSpeed="11.48" duration="220.00" routeLength="1015.10" waitSteps="92" timeLoss="143.86" rerouteNo="0" devices="tripinfo_left_58" vType="typeWE" speedFactor="1.00" vaporized=""/>
    <tripinfo id="right_68" depart="322.00" departLane="51o_0" departPos="5.10" departSpeed="0.00" departDelay="0.00" arrival="492.00" arrivalLane="52i_0" arrivalPos="10.00" arrivalSpeed="11.48" duration="170.00" routeLength="1015.10" waitSteps="49" timeLoss="93.80" rerouteNo="0" devices="tripinfo_right_68" vType="typeWE" speedFactor="1.00" vaporized=""/>
    <tripinfo id="right_72" depart="342.00" departLane="51o_0" departPos="5.10" departSpeed="0.00" departDelay="0.00" arrival="494.00" arrivalLane="52i_0" arrivalPos="10.00" arrivalSpeed="11.56" duration="152.00" routeLength="1015.10" waitSteps="41" timeLoss="75.77" rerouteNo="0" devices="tripinfo_right_72" vType="typeWE" speedFactor="1.00" vaporized=""/>
    <tripinfo id="left_59" depart="280.00" departLane="52o_0" departPos="5.10" departSpeed="0.00" departDelay="5.00" arrival="495.00" arrivalLane="51i_0" arrivalPos="10.00" arrivalSpeed="11.41" duration="215.00" routeLength="1015.10" waitSteps="82" timeLoss="138.61" rerouteNo="0" devices="tripinfo_left_59" vType="typeWE" speedFactor="1.00" vaporized=""/>
    <tripinfo id="right_77" depart="354.00" departLane="51o_0" departPos="5.10" departSpeed="0.00" departDelay="0.00" arrival="496.00" arrivalLane="52i_0" arrivalPos="10.00" arrivalSpeed="11.74" duration="142.00" routeLength="1015.10" waitSteps="31" timeLoss="66.14" rerouteNo="0" devices="tripinfo_right_77" vType="typeWE" speedFactor="1.00" vaporized=""/>
    <tripinfo id="left_71" depart="339.00" departLane="52o_0" departPos="5.10" departSpeed="0.00" departDelay="0.00" arrival="497.00" arrivalLane="51i_0" arrivalPos="10.00" arrivalSpeed="11.74" duration="158.00" routeLength="1015.10" waitSteps="45" timeLoss="82.05" rerouteNo="0" devices="tripinfo_left_71" vType="typeWE" speedFactor="1.00" vaporized=""/>
    <tripinfo id="left_73" depart="344.00" departLane="52o_0" departPos="5.10" departSpeed="0.00" departDelay="0.00" arrival="499.00" arrivalLane="51i_0" arrivalPos="10.00" arrivalSpeed="11.49" duration="155.00" routeLength="1015.10" waitSteps="40" timeLoss="78.76" rerouteNo="0" devices="tripinfo_left_73" vType="typeWE" speedFactor="1.00" vaporized=""/>
    <tripinfo id="right_78" depart="375.00" departLane="51o_0" departPos="5.10" departSpeed="0.00" departDelay="0.00" arrival="499.00" arrivalLane="52i_0" arrivalPos="10.00" arrivalSpeed="11.64" duration="124.00" routeLength="1015.10" waitSteps="19" timeLoss="47.29" rerouteNo="0" devices="tripinfo_right_78" vType="typeWE" speedFactor="1.00" vaporized=""/>
    <tripinfo id="down_86" depart="394.00" departLane="54o_0" departPos="7.10" departSpeed="0.00" departDelay="0.00" arrival="513.00" arrivalLane="53i_0" arrivalPos="10.00" arrivalSpeed="11.48" duration="119.00" routeLength="1013.10" waitSteps="18" timeLoss="47.01" rerouteNo="0" devices="tripinfo_down_86" vType="typeNS" speedFactor="1.00" vaporized=""/>