<?xml version="1.0" encoding="UTF-8"?>

<!-- generated on Mon Feb 26 02:56:06 2018 by SUMO Version 0.32.0
<?xml version="1.0" encoding="UTF-8"?>

<configuration xmlns:xsi="http://www.w3.org/2001/XMLSchema-instance" xsi:noNamespaceSchemaLocation="http://sumo.dlr.de/xsd/sumoConfiguration.xsd">

    <input>
        <net-file value="data/cross.net.xml"/>
        <route-files value="data/cross.rou.xml"/>
        <additional-files value="data/cross.det.xml,data/cross.det2.xml"/>
    </input>

    <output>
        <tripinfo-output value="qlepisode5_tripinfo.xml"/>
    </output>

    <time>
        <begin value="0"/>
    </time>

    <report>
        <verbose value="true"/>
        <error-log value="errors"/>
        <no-step-log value="true"/>
    </report>

    <traci_server>
        <remote-port value="54776"/>
    </traci_server>

</configuration>
-->

<tripinfos xmlns:xsi="http://www.w3.org/2001/XMLSchema-instance" xsi:noNamespaceSchemaLocation="http://sumo.dlr.de/xsd/tripinfo_file.xsd">
    <tripinfo id="left_0" depart="0.00" departLane="52o_0" departPos="5.10" departSpeed="0.00" departDelay="0.00" arrival="110.00" arrivalLane="51i_0" arrivalPos="10.00" arrivalSpeed="11.43" duration="110.00" routeLength="1015.10" waitSteps="8" timeLoss="34.11" rerouteNo="0" devices="tripinfo_left_0" vType="typeWE" speedFactor="1.00" vaporized=""/>
    <tripinfo id="right_2" depart="3.00" departLane="51o_0" departPos="5.10" departSpeed="0.00" departDelay="0.00" arrival="110.00" arrivalLane="52i_0" arrivalPos="10.00" arrivalSpeed="11.65" duration="107.00" routeLength="1015.10" waitSteps="5" timeLoss="30.76" rerouteNo="0" devices="tripinfo_right_2" vType="typeWE" speedFactor="1.00" vaporized=""/>
    <tripinfo id="left_1" depart="5.00" departLane="52o_0" departPos="5.10" departSpeed="0.00" departDelay="3.00" arrival="112.00" arrivalLane="51i_0" arrivalPos="10.00" arrivalSpeed="11.40" duration="107.00" routeLength="1015.10" waitSteps="4" timeLoss="31.06" rerouteNo="0" devices="tripinfo_left_1" vType="typeWE" speedFactor="1.00" vaporized=""/>
    <tripinfo id="right_3" depart="8.00" departLane="51o_0" departPos="5.10" departSpeed="0.00" departDelay="4.00" arrival="113.00" arrivalLane="52i_0" arrivalPos="10.00" arrivalSpeed="11.37" duration="105.00" routeLength="1015.10" waitSteps="1" timeLoss="28.48" rerouteNo="0" devices="tripinfo_right_3" vType="typeWE" speedFactor="1.00" vaporized=""/>
    <tripinfo id="right_5" depart="13.00" departLane="51o_0" departPos="5.10" departSpeed="0.00" departDelay="4.00" arrival="114.00" arrivalLane="52i_0" arrivalPos="10.00" arrivalSpeed="10.85" duration="101.00" routeLength="1015.10" waitSteps="0" timeLoss="24.93" rerouteNo="0" devices="tripinfo_right_5" vType="typeWE" speedFactor="1.00" vaporized=""/>
    <tripinfo id="left_4" depart="10.00" departLane="52o_0" departPos="5.10" departSpeed="0.00" departDelay="4.00" arrival="115.00" arrivalLane="51i_0" arrivalPos="10.00" arrivalSpeed="11.55" duration="105.00" routeLength="1015.10" waitSteps="2" timeLoss="28.41" rerouteNo="0" devices="tripinfo_left_4" vType="typeWE" speedFactor="1.00" vaporized=""/>
    <tripinfo id="left_7" depart="22.00" departLane="52o_0" departPos="5.10" departSpeed="0.00" departDelay="0.00" arrival="116.00" arrivalLane="51i_0" arrivalPos="10.00" arrivalSpeed="11.82" duration="94.00" routeLength="1015.10" waitSteps="0" timeLoss="18.04" rerouteNo="0" devices="tripinfo_left_7" vType="typeWE" speedFactor="1.00" vaporized=""/>
    <tripinfo id="left_9" depart="31.00" departLane="52o_0" departPos="5.10" departSpeed="0.00" departDelay="0.00" arrival="122.00" arrivalLane="51i_0" arrivalPos="10.00" arrivalSpeed="11.60" duration="91.00" routeLength="1015.10" waitSteps="0" timeLoss="14.69" rerouteNo="0" devices="tripinfo_left_9" vType="typeWE" speedFactor="1.00" vaporized=""/>
    <tripinfo id="left_10" depart="36.00" departLane="52o_0" departPos="5.10" departSpeed="0.00" departDelay="3.00" arrival="128.00" arrivalLane="51i_0" arrivalPos="10.00" arrivalSpeed="11.39" duration="92.00" routeLength="1015.10" waitSteps="0" timeLoss="15.74" rerouteNo="0" devices="tripinfo_left_10" vType="typeWE" speedFactor="1.00" vaporized=""/>
    <tripinfo id="left_11" depart="41.00" departLane="52o_0" departPos="5.10" departSpeed="0.00" departDelay="0.00" arrival="132.00" arrivalLane="51i_0" arrivalPos="10.00" arrivalSpeed="11.77" duration="91.00" routeLength="1015.10" waitSteps="0" timeLoss="14.76" rerouteNo="0" devices="tripinfo_left_11" vType="typeWE" speedFactor="1.00" vaporized=""/>
    <tripinfo id="right_12" depart="42.00" departLane="51o_0" departPos="5.10" departSpeed="0.00" departDelay="0.00" arrival="134.00" arrivalLane="52i_0" arrivalPos="10.00" arrivalSpeed="11.54" duration="92.00" routeLength="1015.10" waitSteps="0" timeLoss="15.68" rerouteNo="0" devices="tripinfo_right_12" vType="typeWE" speedFactor="1.00" vaporized=""/>
    <tripinfo id="left_13" depart="46.00" departLane="52o_0" departPos="5.10" departSpeed="0.00" departDelay="1.00" arrival="137.00" arrivalLane="51i_0" arrivalPos="10.00" arrivalSpeed="11.78" duration="91.00" routeLength="1015.10" waitSteps="0" timeLoss="14.89" rerouteNo="0" devices="tripinfo_left_13" vType="typeWE" speedFactor="1.00" vaporized=""/>
    <tripinfo id="left_14" depart="53.00" departLane="52o_0" departPos="5.10" departSpeed="0.00" departDelay="0.00" arrival="146.00" arrivalLane="51i_0" arrivalPos="10.00" arrivalSpeed="11.39" duration="93.00" routeLength="1015.10" waitSteps="0" timeLoss="16.18" rerouteNo="0" devices="tripinfo_left_14" vType="typeWE" speedFactor="1.00" vaporized=""/>
    <tripinfo id="right_15" depart="55.00" departLane="51o_0" departPos="5.10" departSpeed="0.00" departDelay="0.00" arrival="146.00" arrivalLane="52i_0" arrivalPos="10.00" arrivalSpeed="11.24" duration="91.00" routeLength="1015.10" waitSteps="0" timeLoss="14.83" rerouteNo="0" devices="tripinfo_right_15" vType="typeWE" speedFactor="1.00" vaporized=""/>
    <tripinfo id="down_6" depart="13.00" departLane="54o_0" departPos="7.10" departSpeed="0.00" departDelay="0.00" arrival="164.00" arrivalLane="53i_0" arrivalPos="10.00" arrivalSpeed="11.48" duration="151.00" routeLength="1013.10" waitSteps="50" timeLoss="79.71" rerouteNo="0" devices="tripinfo_down_6" vType="typeNS" speedFactor="1.00" vaporized=""/>
    <tripinfo id="right_16" depart="61.00" departLane="51o_0" departPos="5.10" departSpeed="0.00" departDelay="0.00" arrival="176.00" arrivalLane="52i_0" arrivalPos="10.00" arrivalSpeed="11.60" duration="115.00" routeLength="1015.10" waitSteps="13" timeLoss="39.20" rerouteNo="0" devices="tripinfo_right_16" vType="typeWE" speedFactor="1.00" vaporized=""/>
    <tripinfo id="right_17" depart="69.00" departLane="51o_0" departPos="5.10" departSpeed="0.00" departDelay="0.00" arrival="178.00" arrivalLane="52i_0" arrivalPos="10.00" arrivalSpeed="11.28" duration="109.00" routeLength="1015.10" waitSteps="7" timeLoss="33.15" rerouteNo="0" devices="tripinfo_right_17" vType="typeWE" speedFactor="1.00" vaporized=""/>
    <tripinfo id="down_8" depart="29.00" departLane="54o_0" departPos="7.10" departSpeed="0.00" departDelay="0.00" arrival="188.00" arrivalLane="53i_0" arrivalPos="10.00" arrivalSpeed="11.59" duration="159.00" routeLength="1013.10" waitSteps="51" timeLoss="87.39" rerouteNo="0" devices="tripinfo_down_8" vType="typeNS" speedFactor="1.00" vaporized=""/>
    <tripinfo id="left_19" depart="85.00" departLane="52o_0" departPos="5.10" departSpeed="0.00" departDelay="0.00" arrival="200.00" arrivalLane="51i_0" arrivalPos="10.00" arrivalSpeed="11.48" duration="115.00" routeLength="1015.10" waitSteps="13" timeLoss="38.74" rerouteNo="0" devices="tripinfo_left_19" vType="typeWE" speedFactor="1.00" vaporized=""/>
    <tripinfo id="right_18" depart="84.00" departLane="51o_0" departPos="5.10" departSpeed="0.00" departDelay="0.00" arrival="201.00" arrivalLane="52i_0" arrivalPos="10.00" arrivalSpeed="11.71" duration="117.00" routeLength="1015.10" waitSteps="13" timeLoss="40.90" rerouteNo="0" devices="tripinfo_right_18" vType="typeWE" speedFactor="1.00" vaporized=""/>
    <tripinfo id="down_20" depart="89.00" departLane="54o_0" departPos="7.10" departSpeed="0.00" departDelay="0.00" arrival="212.00" arrivalLane="53i_0" arrivalPos="10.00" arrivalSpeed="11.67" duration="123.00" routeLength="1013.10" waitSteps="18" timeLoss="51.44" rerouteNo="0" devices="tripinfo_down_20" vType="typeNS" speedFactor="1.00" vaporized=""/>
    <tripinfo id="right_22" depart="99.00" departLane="51o_0" departPos="5.10" departSpeed="0.00" departDelay="0.00" arrival="224.00" arrivalLane="52i_0" arrivalPos="10.00" arrivalSpeed="11.50" duration="125.00" routeLength="1015.10" waitSteps="16" timeLoss="48.46" rerouteNo="0" devices="tripinfo_right_22" vType="typeWE" speedFactor="1.00" vaporized=""/>
    <tripinfo id="left_23" depart="99.00" departLane="52o_0" departPos="5.10" departSpeed="0.00" departDelay="0.00" arrival="224.00" arrivalLane="51i_0" arrivalPos="10.00" arrivalSpeed="11.45" duration="125.00" routeLength="1015.10" waitSteps="18" timeLoss="49.03" rerouteNo="0" devices="tripinfo_left_23" vType="typeWE" speedFactor="1.00" vaporized=""/>
    <tripinfo id="right_24" depart="108.00" departLane="51o_0" departPos="5.10" departSpeed="0.00" departDelay="0.00" arrival="226.00" arrivalLane="52i_0" arrivalPos="10.00" arrivalSpeed="11.51" duration="118.00" routeLength="1015.10" waitSteps="15" timeLoss="41.66" rerouteNo="0" devices="tripinfo_right_24" vType="typeWE" speedFactor="1.00" vaporized=""/>
    <tripinfo id="left_28" depart="131.00" departLane="52o_0" departPos="5.10" departSpeed="0.00" departDelay="0.00" arrival="226.00" arrivalLane="51i_0" arrivalPos="10.00" arrivalSpeed="11.56" duration="95.00" routeLength="1015.10" waitSteps="0" timeLoss="18.80" rerouteNo="0" devices="tripinfo_left_28" vType="typeWE" speedFactor="1.00" vaporized=""/>
    <tripinfo id="right_25" depart="116.00" departLane="51o_0" departPos="5.10" departSpeed="0.00" departDelay="2.00" arrival="228.00" arrivalLane="52i_0" arrivalPos="10.00" arrivalSpeed="11.39" duration="112.00" routeLength="1015.10" waitSteps="9" timeLoss="35.56" rerouteNo="0" devices="tripinfo_right_25" vType="typeWE" speedFactor="1.00" vaporized=""/>
    <tripinfo id="left_29" depart="136.00" departLane="52o_0" departPos="5.10" departSpeed="0.00" departDelay="1.00" arrival="228.00" arrivalLane="51i_0" arrivalPos="10.00" arrivalSpeed="11.42" duration="92.00" routeLength="1015.10" waitSteps="0" timeLoss="15.39" rerouteNo="0" devices="tripinfo_left_29" vType="typeWE" speedFactor="1.00" vaporized=""/>
    <tripinfo id="down_21" depart="96.00" departLane="54o_0" departPos="7.10" departSpeed="0.00" departDelay="0.00" arrival="243.00" arrivalLane="53i_0" arrivalPos="10.00" arrivalSpeed="11.67" duration="147.00" routeLength="1013.10" waitSteps="37" timeLoss="75.40" rerouteNo="0" devices="tripinfo_down_21" vType="typeNS" speedFactor="1.00" vaporized=""/>
    <tripinfo id="down_26" depart="122.00" departLane="54o_0" departPos="7.10" departSpeed="0.00" departDelay="0.00" arrival="245.00" arrivalLane="53i_0" arrivalPos="10.00" arrivalSpeed="11.42" duration="123.00" routeLength="1013.10" waitSteps="19" timeLoss="51.77" rerouteNo="0" devices="tripinfo_down_26" vType="typeNS" speedFactor="1.00" vaporized=""/>
    <tripinfo id="left_30" depart="141.00" departLane="52o_0" departPos="5.10" departSpeed="0.00" departDelay="3.00" arrival="260.00" arrivalLane="51i_0" arrivalPos="10.00" arrivalSpeed="10.99" duration="119.00" routeLength="1015.10" waitSteps="17" timeLoss="43.01" rerouteNo="0" devices="tripinfo_left_30" vType="typeWE" speedFactor="1.00" vaporized=""/>
    <tripinfo id="right_27" depart="125.00" departLane="51o_0" departPos="5.10" departSpeed="0.00" departDelay="0.00" arrival="261.00" arrivalLane="52i_0" arrivalPos="10.00" arrivalSpeed="11.74" duration="136.00" routeLength="1015.10" waitSteps="23" timeLoss="59.98" rerouteNo="0" devices="tripinfo_right_27" vType="typeWE" speedFactor="1.00" vaporized=""/>
    <tripinfo id="down_41" depart="172.00" departLane="54o_0" departPos="7.10" departSpeed="0.00" departDelay="0.00" arrival="273.00" arrivalLane="53i_0" arrivalPos="10.00" arrivalSpeed="11.18" duration="101.00" routeLength="1013.10" waitSteps="0" timeLoss="29.11" rerouteNo="0" devices="tripinfo_down_41" vType="typeNS" speedFactor="1.00" vaporized=""/>
    <tripinfo id="left_31" depart="146.00" departLane="52o_0" departPos="5.10" departSpeed="0.00" departDelay="4.00" arrival="284.00" arrivalLane="51i_0" arrivalPos="10.00" arrivalSpeed="11.52" duration="138.00" routeLength="1015.10" waitSteps="31" timeLoss="61.69" rerouteNo="0" devices="tripinfo_left_31" vType="typeWE" speedFactor="1.00" vaporized=""/>
    <tripinfo id="right_32" depart="146.00" departLane="51o_0" departPos="5.10" departSpeed="0.00" departDelay="1.00" arrival="285.00" arrivalLane="52i_0" arrivalPos="10.00" arrivalSpeed="11.64" duration="139.00" routeLength="1015.10" waitSteps="31" timeLoss="62.38" rerouteNo="0" devices="tripinfo_right_32" vType="typeWE" speedFactor="1.00" vaporized=""/>
    <tripinfo id="left_33" depart="153.00" departLane="52o_0" departPos="5.10" departSpeed="0.00" departDelay="0.00" arrival="286.00" arrivalLane="51i_0" arrivalPos="10.00" arrivalSpeed="11.10" duration="133.00" routeLength="1015.10" waitSteps="26" timeLoss="56.96" rerouteNo="0" devices="tripinfo_left_33" vType="typeWE" speedFactor="1.00" vaporized=""/>
    <tripinfo id="right_37" depart="167.00" departLane="51o_0" departPos="5.10" departSpeed="0.00" departDelay="0.00" arrival="287.00" arrivalLane="52i_0" arrivalPos="10.00" arrivalSpeed="11.75" duration="120.00" routeLength="1015.10" waitSteps="16" timeLoss="43.43" rerouteNo="0" devices="tripinfo_right_37" vType="typeWE" speedFactor="1.00" vaporized=""/>
    <tripinfo id="right_38" depart="172.00" departLane="51o_0" departPos="5.10" departSpeed="0.00" departDelay="4.00" arrival="289.00" arrivalLane="52i_0" arrivalPos="10.00" arrivalSpeed="11.44" duration="117.00" routeLength="1015.10" waitSteps="14" timeLoss="40.37" rerouteNo="0" devices="tripinfo_right_38" vType="typeWE" speedFactor="1.00" vaporized=""/>
    <tripinfo id="left_34" depart="158.00" departLane="52o_0" departPos="5.10" departSpeed="0.00" departDelay="2.00" arrival="289.00" arrivalLane="51i_0" arrivalPos="10.00" arrivalSpeed="11.51" duration="131.00" routeLength="1015.10" waitSteps="19" timeLoss="54.74" rerouteNo="0" devices="tripinfo_left_34" vType="typeWE" speedFactor="1.00" vaporized=""/>
    <tripinfo id="right_42" depart="178.00" departLane="51o_0" departPos="5.10" departSpeed="0.00" departDelay="2.00" arrival="326.00" arrivalLane="52i_0" arrivalPos="10.00" arrivalSpeed="11.10" duration="148.00" routeLength="1015.10" waitSteps="37" timeLoss="72.08" rerouteNo="0" devices="tripinfo_right_42" vType="typeWE" speedFactor="1.00" vaporized=""/>
    <tripinfo id="left_35" depart="163.00" departLane="52o_0" departPos="5.10" departSpeed="0.00" departDelay="3.00" arrival="326.00" arrivalLane="51i_0" arrivalPos="10.00" arrivalSpeed="11.07" duration="163.00" routeLength="1015.10" waitSteps="44" timeLoss="87.01" rerouteNo="0" devices="tripinfo_left_35" vType="typeWE" speedFactor="1.00" vaporized=""/>
    <tripinfo id="down_55" depart="238.00" departLane="54o_0" departPos="7.10" departSpeed="0.00" departDelay="0.00" arrival="338.00" arrivalLane="53i_0" arrivalPos="10.00" arrivalSpeed="11.47" duration="100.00" routeLength="1013.10" waitSteps="1" timeLoss="28.56" rerouteNo="0" devices="tripinfo_down_55" vType="typeNS" speedFactor="1.00" vaporized=""/>
    <tripinfo id="down_57" depart="244.00" departLane="54o_0" departPos="7.10" departSpeed="0.00" departDelay="2.00" arrival="340.00" arrivalLane="53i_0" arrivalPos="10.00" arrivalSpeed="11.53" duration="96.00" routeLength="1013.10" waitSteps="0" timeLoss="24.59" rerouteNo="0" devices="tripinfo_down_57" vType="typeNS" speedFactor="1.00" vaporized=""/>
    <tripinfo id="right_43" depart="183.00" departLane="51o_0" departPos="5.10" departSpeed="0.00" departDelay="2.00" arrival="368.00" arrivalLane="52i_0" arrivalPos="10.00" arrivalSpeed="11.51" duration="185.00" routeLength="1015.10" waitSteps="67" timeLoss="109.24" rerouteNo="0" devices="tripinfo_right_43" vType="typeWE" speedFactor="1.00" vaporized=""/>
    <tripinfo id="left_36" depart="168.00" departLane="52o_0" departPos="5.10" departSpeed="0.00" departDelay="4.00" arrival="369.00" arrivalLane="51i_0" arrivalPos="10.00" arrivalSpeed="11.73" duration="201.00" routeLength="1015.10" waitSteps="77" timeLoss="124.96" rerouteNo="0" devices="tripinfo_left_36" vType="typeWE" speedFactor="1.00" vaporized=""/>
    <tripinfo id="right_44" depart="188.00" departLane="51o_0" departPos="5.10" departSpeed="0.00" departDelay="5.00" arrival="370.00" arrivalLane="52i_0" arrivalPos="10.00" arrivalSpeed="11.57" duration="182.00" routeLength="1015.10" waitSteps="61" timeLoss="106.11" rerouteNo="0" devices="tripinfo_right_44" vType="typeWE" speedFactor="1.00" vaporized=""/>
    <tripinfo id="down_60" depart="283.00" departLane="54o_0" departPos="7.10" departSpeed="0.00" departDelay="0.00" arrival="373.00" arrivalLane="53i_0" arrivalPos="10.00" arrivalSpeed="11.48" duration="90.00" routeLength="1013.10" waitSteps="0" timeLoss="18.19" rerouteNo="0" devices="tripinfo_down_60" vType="typeNS" speedFactor="1.00" vaporized=""/>
    <tripinfo id="down_66" depart="302.00" departLane="54o_0" departPos="7.10" departSpeed="0.00" departDelay="0.00" arrival="392.00" arrivalLane="53i_0" arrivalPos="10.00" arrivalSpeed="11.49" duration="90.00" routeLength="1013.10" waitSteps="0" timeLoss="17.82" rerouteNo="0" devices="tripinfo_down_66" vType="typeNS" speedFactor="1.00" vaporized=""/>
    <tripinfo id="right_48" depart="200.00" departLane="51o_0" departPos="5.10" departSpeed="0.00" departDelay="0.00" arrival="404.00" arrivalLane="52i_0" arrivalPos="10.00" arrivalSpeed="11.47" duration="204.00" routeLength="1015.10" waitSteps="87" timeLoss="128.08" rerouteNo="0" devices="tripinfo_right_48" vType="typeWE" speedFactor="1.00" vaporized=""/>
    <tripinfo id="left_39" depart="173.00" departLane="52o_0" departPos="5.10" departSpeed="0.00" departDelay="4.00" arrival="405.00" arrivalLane="51i_0" arrivalPos="10.00" arrivalSpeed="11.63" duration="232.00" routeLength="1015.10" waitSteps="104" timeLoss="155.69" rerouteNo="0" devices="tripinfo_left_39" vType="typeWE" speedFactor="1.00" vaporized=""/>
    <tripinfo id="right_50" depart="217.00" departLane="51o_0" departPos="5.10" departSpeed="0.00" departDelay="0.00" arrival="406.00" arrivalLane="52i_0" arrivalPos="10.00" arrivalSpeed="10.75" duration="189.00" routeLength="1015.10" waitSteps="73" timeLoss="112.95" rerouteNo="0" devices="tripinfo_right_50" vType="typeWE" speedFactor="1.00" vaporized=""/>
    <tripinfo id="left_40" depart="178.00" departLane="52o_0" departPos="5.10" departSpeed="0.00" departDelay="6.00" arrival="407.00" arrivalLane="51i_0" arrivalPos="10.00" arrivalSpeed="11.29" duration="229.00" routeLength="1015.10" waitSteps="103" timeLoss="152.62" rerouteNo="0" devices="tripinfo_left_40" vType="typeWE" speedFactor="1.00" vaporized=""/>
    <tripinfo id="right_52" depart="228.00" departLane="51o_0" departPos="5.10" departSpeed="0.00" departDelay="0.00" arrival="408.00" arrivalLane="52i_0" arrivalPos="10.00" arrivalSpeed="11.34" duration="180.00" routeLength="1015.10" waitSteps="60" timeLoss="104.15" rerouteNo="0" devices="tripinfo_right_52" vType="typeWE" speedFactor="1.00" vaporized=""/>
    <tripinfo id="left_45" depart="194.00" departLane="52o_0" departPos="5.10" departSpeed="0.00" departDelay="0.00" arrival="409.00" arrivalLane="51i_0" arrivalPos="10.00" arrivalSpeed="11.48" duration="215.00" routeLength="1015.10" waitSteps="87" timeLoss="138.56" rerouteNo="0" devices="tripinfo_left_45" vType="typeWE" speedFactor="1.00" vaporized=""/>
    <tripinfo id="right_56" depart="240.00" departLane="51o_0" departPos="5.10" departSpeed="0.00" departDelay="0.00" arrival="411.00" arrivalLane="52i_0" arrivalPos="10.00" arrivalSpeed="11.72" duration="171.00" routeLength="1015.10" waitSteps="59" timeLoss="94.59" rerouteNo="0" devices="tripinfo_right_56" vType="typeWE" speedFactor="1.00" vaporized=""/>
    <tripinfo id="left_46" depart="199.00" departLane="52o_0" departPos="5.10" departSpeed="0.00" departDelay="3.00" arrival="411.00" arrivalLane="51i_0" arrivalPos="10.00" arrivalSpeed="11.36" duration="212.00" routeLength="1015.10" waitSteps="85" timeLoss="135.43" rerouteNo="0" devices="tripinfo_left_46" vType="typeWE" speedFactor="1.00" vaporized=""/>
    <tripinfo id="right_61" depart="284.00" departLane="51o_0" departPos="5.10" departSpeed="0.00" departDelay="0.00" arrival="413.00" arrivalLane="52i_0" arrivalPos="10.00" arrivalSpeed="11.45" duration="129.00" routeLength="1015.10" waitSteps="23" timeLoss="52.56" rerouteNo="0" devices="tripinfo_right_61" vType="typeWE" speedFactor="1.00" vaporized=""/>
    <tripinfo id="left_47" depart="204.00" departLane="52o_0" departPos="5.10" departSpeed="0.00" departDelay="5.00" arrival="413.00" arrivalLane="51i_0" arrivalPos="10.00" arrivalSpeed="11.33" duration="209.00" routeLength="1015.10" waitSteps="84" timeLoss="132.55" rerouteNo="0" devices="tripinfo_left_47" vType="typeWE" speedFactor="1.00" vaporized=""/>
    <tripinfo id="right_62" depart="290.00" departLane="51o_0" departPos="5.10" departSpeed="0.00" departDelay="4.00" arrival="415.00" arrivalLane="52i_0" arrivalPos="10.00" arrivalSpeed="11.55" duration="125.00" routeLength="1015.10" waitSteps="18" timeLoss="48.60" rerouteNo="0" devices="tripinfo_right_62" vType="typeWE" speedFactor="1.00" vaporized=""/>
    <tripinfo id="left_49" depart="212.00" departLane="52o_0" departPos="5.10" departSpeed="0.00" departDelay="0.00" arrival="415.00" arrivalLane="51i_0" arrivalPos="10.00" arrivalSpeed="11.68" duration="203.00" routeLength="1015.10" waitSteps="82" timeLoss="126.38" rerouteNo="0" devices="tripinfo_left_49" vType="typeWE" speedFactor="1.00" vaporized=""/>
    <tripinfo id="down_67" depart="318.00" departLane="54o_0" departPos="7.10" departSpeed="0.00" departDelay="0.00" arrival="429.00" arrivalLane="53i_0" arrivalPos="10.00" arrivalSpeed="11.56" duration="111.00" routeLength="1013.10" waitSteps="10" timeLoss="39.53" rerouteNo="0" devices="tripinfo_down_67" vType="typeNS" speedFactor="1.00" vaporized=""/>
    <tripinfo id="left_51" depart="219.00" departLane="52o_0" departPos="5.10" departSpeed="0.00" departDelay="0.00" arrival="440.00" arrivalLane="51i_0" arrivalPos="10.00" arrivalSpeed="11.44" duration="221.00" routeLength="1015.10" waitSteps="89" timeLoss="145.21" rerouteNo="0" devices="tripinfo_left_51" vType="typeWE" speedFactor="1.00" vaporized=""/>
    <tripinfo id="right_63" depart="296.00" departLane="51o_0" departPos="5.10" departSpeed="0.00" departDelay="8.00" arrival="441.00" arrivalLane="52i_0" arrivalPos="10.00" arrivalSpeed="11.62" duration="145.00" routeLength="1015.10" waitSteps="31" timeLoss="68.38" rerouteNo="0" devices="tripinfo_right_63" vType="typeWE" speedFactor="1.00" vaporized=""/>
    <tripinfo id="right_64" depart="301.00" departLane="51o_0" departPos="5.10" departSpeed="0.00" departDelay="10.00" arrival="443.00" arrivalLane="52i_0" arrivalPos="10.00" arrivalSpeed="11.75" duration="142.00" routeLength="1015.10" waitSteps="27" timeLoss="65.85" rerouteNo="0" devices="tripinfo_right_64" vType="typeWE" speedFactor="1.00" vaporized=""/>
    <tripinfo id="left_53" depart="234.00" departLane="52o_0" departPos="5.10" departSpeed="0.00" departDelay="0.00" arrival="443.00" arrivalLane="51i_0" arrivalPos="10.00" arrivalSpeed="11.70" duration="209.00" routeLength="1015.10" waitSteps="74" timeLoss="132.75" rerouteNo="0" devices="tripinfo_left_53" vType="typeWE" speedFactor="1.00" vaporized=""/>
    <tripinfo id="right_65" depart="306.00" departLane="51o_0" departPos="5.10" departSpeed="0.00" departDelay="12.00" arrival="445.00" arrivalLane="52i_0" arrivalPos="10.00" arrivalSpeed="11.57" duration="139.00" routeLength="1015.10" waitSteps="22" timeLoss="63.08" rerouteNo="0" devices="tripinfo_right_65" vType="typeWE" speedFactor="1.00" vaporized=""/>
    <tripinfo id="left_54" depart="239.00" departLane="52o_0" departPos="5.10" departSpeed="0.00" departDelay="1.00" arrival="445.00" arrivalLane="51i_0" arrivalPos="10.00" arrivalSpeed="11.56" duration="206.00" routeLength="1015.10" waitSteps="71" timeLoss="129.77" rerouteNo="0" devices="tripinfo_left_54" vType="typeWE" speedFactor="1.00" vaporized=""/>
    <tripinfo id="right_68" depart="322.00" departLane="51o_0" departPos="5.10" departSpeed="0.00" departDelay="0.00" arrival="447.00" arrivalLane="52i_0" arrivalPos="10.00" arrivalSpeed="11.17" duration="125.00" routeLength="1015.10" waitSteps="13" timeLoss="49.20" rerouteNo="0" devices="tripinfo_right_68" vType="typeWE" speedFactor="1.00" vaporized=""/>
    <tripinfo id="left_58" depart="272.00" departLane="52o_0" departPos="5.10" departSpeed="0.00" departDelay="0.00" arrival="447.00" arrivalLane="51i_0" arrivalPos="10.00" arrivalSpeed="11.56" duration="175.00" routeLength="1015.10" waitSteps="48" timeLoss="98.83" rerouteNo="0" devices="tripinfo_left_58" vType="typeWE" speedFactor="1.00" vaporized=""/>
    <tripinfo id="right_72" depart="342.00" departLane="51o_0" departPos="5.10" departSpeed="0.00" departDelay="0.00" arrival="449.00" arrivalLane="52i_0" arrivalPos="10.00" arrivalSpeed="11.38" duration="107.00" routeLength="1015.10" waitSteps="4" timeLoss="30.93" rerouteNo="0" devices="tripinfo_right_72" vType="typeWE" speedFactor="1.00" vaporized=""/>
    <tripinfo id="left_59" depart="277.00" departLane="52o_0" departPos="5.10" departSpeed="0.00" departDelay="2.00" arrival="449.00" arrivalLane="51i_0" arrivalPos="10.00" arrivalSpeed="11.37" duration="172.00" routeLength="1015.10" waitSteps="46" timeLoss="95.70" rerouteNo="0" devices="tripinfo_left_59" vType="typeWE" speedFactor="1.00" vaporized=""/>
    <tripinfo id="right_77" depart="354.00" departLane="51o_0" departPos="5.10" departSpeed="0.00" departDelay="0.00" arrival="451.00" arrivalLane="52i_0" arrivalPos="10.00" arrivalSpeed="11.28" duration="97.00" routeLength="1015.10" waitSteps="0" timeLoss="20.93" rerouteNo="0" devices="tripinfo_right_77" vType="typeWE" speedFactor="1.00" vaporized=""/>
    <tripinfo id="left_71" depart="339.00" departLane="52o_0" departPos="5.10" departSpeed="0.00" departDelay="0.00" arrival="451.00" arrivalLane="51i_0" arrivalPos="10.00" arrivalSpeed="11.47" duration="112.00" routeLength="1015.10" waitSteps="6" timeLoss="35.53" rerouteNo="0" devices="tripinfo_left_71" vType="typeWE" speedFactor="1.00" vaporized=""/>
    <tripinfo id="left_73" depart="344.00" departLane="52o_0" departPos="5.10" departSpeed="0.00" departDelay="0.00" arrival="452.00" arrivalLane="51i_0" arrivalPos="10.00" arrivalSpeed="10.97" duration="108.00" routeLength="1015.10" waitSteps="2" timeLoss="31.96" rerouteNo="0" devices="tripinfo_left_73" vType="typeWE" speedFactor="1.00" vaporized=""/>
    <tripinfo id="left_75" depart="349.00" departLane="52o_0" departPos="5.10" departSpeed="0.00" departDelay="3.00" arrival="455.00" arrivalLane="51i_0" arrivalPos="10.00" arrivalSpeed="11.49" duration="106.00" routeLength="1015.10" waitSteps="0" timeLoss="29.52" rerouteNo="0" devices="tripinfo_left_75" vType="typeWE" speedFactor="1.00" vaporized=""/>
    <tripinfo id="down_69" depart="331.00" departLane="54o_0" departPos="7.10" departSpeed="0.00" departDelay="0.00" arrival="477.00" arrivalLane="53i_0" arrivalPos="10.00" arrivalSpeed="11.45" duration="146.00" routeLength="1013.10" waitSteps="41" timeLoss="73.99" rerouteNo="0" devices="tripinfo_down_69" vType="typeNS" speedFactor="1.00" vaporized=""/>
    <tripinfo id="down_70" depart="337.00" departLane="54o_0" departPos="7.10" departSpeed="0.00" departDelay="0.00" arrival="479.00" arrivalLane="53i_0" arrivalPos="10.00" arrivalSpeed="11.50" duration="142.00" routeLength="1013.10" waitSteps="40" timeLoss="70.06" rerouteNo="0" devices="tripinfo_down_70" vType="typeNS" speedFactor="1.00" vaporized=""/>
    <tripinfo id="down_74" depart="344.00" departLane="54o_0" departPos="7.10" departSpeed="0.00" departDelay="0.00" arrival="482.00" arrivalLane="53i_0" arrivalPos="10.00" arrivalSpeed="11.43" duration="138.00" routeLength="1013.10" waitSteps="34" timeLoss="66.36" rerouteNo="0" devices="tripinfo_down_74" vType="typeNS" speedFactor="1.00" vaporized=""/>
    <tripinfo id="down_76" depart="350.00" departLane="54o_0" departPos="7.10" departSpeed="0.00" departDelay="1.00" arrival="484.00" arrivalLane="53i_0" arrivalPos="10.00" arrivalSpeed="11.45" duration="134.00" routeLength="1013.10" waitSteps="31" timeLoss="62.33" rerouteNo="0" devices="tripinfo_down_76" vType="typeNS" speedFactor="1.00" vaporized=""/>
    <tripinfo id="down_79" depart="377.00" departLane="54o_0" departPos="7.10" departSpeed="0.00" departDelay="0.00" arrival="486.00" arrivalLane="53i_0" arrivalPos="10.00" arrivalSpeed="11.37" duration="109.00" routeLength="1013.10" waitSteps="6" timeLoss="37.77" rerouteNo="0" devices="tripinfo_down_79" vType="typeNS" speedFactor="1.00" vaporized=""/>
    <tripinfo id="right_78" depart="375.00" departLane="51o_0" departPos="5.10" departSpeed="0.00" departDelay="0.00" arrival="500.00" arrivalLane="52i_0" arrivalPos="10.00" arrivalSpeed="11.51" duration="125.00" routeLength="1015.10" waitSteps="24" timeLoss="48.97" rerouteNo="0" devices="tripinfo_right_78" vType="typeWE" speedFactor="1.00" vaporized=""/>
    <tripinfo id="left_82" depart="388.00" departLane="52o_0" departPos="5.10" departSpeed="0.00" departDelay="0.00" arrival="501.00" arrivalLane="51i_0" arrivalPos="10.00" arrivalSpeed="11.63" duration="113.00" routeLength="1015.10" waitSteps="11" timeLoss="36.86" rerouteNo="0" devices="tripinfo_left_82" vType="typeWE" speedFactor="1.00" vaporized=""/>