<?xml version="1.0" encoding="UTF-8"?>

<!-- generated on Mon Feb 26 02:51:05 2018 by SUMO Version 0.32.0
<?xml version="1.0" encoding="UTF-8"?>

<configuration xmlns:xsi="http://www.w3.org/2001/XMLSchema-instance" xsi:noNamespaceSchemaLocation="http://sumo.dlr.de/xsd/sumoConfiguration.xsd">

    <input>
        <net-file value="data/cross.net.xml"/>
        <route-files value="data/cross.rou.xml"/>
        <additional-files value="data/cross.det.xml,data/cross.det2.xml"/>
    </input>

    <output>
        <tripinfo-output value="qlepisode2_tripinfo.xml"/>
    </output>

    <time>
        <begin value="0"/>
    </time>

    <report>
        <verbose value="true"/>
        <error-log value="errors"/>
        <no-step-log value="true"/>
    </report>

    <traci_server>
        <remote-port value="54718"/>
    </traci_server>

</configuration>
-->

<tripinfos xmlns:xsi="http://www.w3.org/2001/XMLSchema-instance" xsi:noNamespaceSchemaLocation="http://sumo.dlr.de/xsd/tripinfo_file.xsd">
    <tripinfo id="down_6" depart="13.00" departLane="54o_0" departPos="7.10" departSpeed="0.00" departDelay="0.00" arrival="103.00" arrivalLane="53i_0" arrivalPos="10.00" arrivalSpeed="11.68" duration="90.00" routeLength="1013.10" waitSteps="0" timeLoss="18.62" rerouteNo="0" devices="tripinfo_down_6" vType="typeNS" speedFactor="1.00" vaporized=""/>
    <tripinfo id="left_0" depart="0.00" departLane="52o_0" departPos="5.10" departSpeed="0.00" departDelay="0.00" arrival="117.00" arrivalLane="51i_0" arrivalPos="10.00" arrivalSpeed="11.77" duration="117.00" routeLength="1015.10" waitSteps="14" timeLoss="40.43" rerouteNo="0" devices="tripinfo_left_0" vType="typeWE" speedFactor="1.00" vaporized=""/>
    <tripinfo id="right_2" depart="3.00" departLane="51o_0" departPos="5.10" departSpeed="0.00" departDelay="0.00" arrival="117.00" arrivalLane="52i_0" arrivalPos="10.00" arrivalSpeed="11.37" duration="114.00" routeLength="1015.10" waitSteps="11" timeLoss="37.45" rerouteNo="0" devices="tripinfo_right_2" vType="typeWE" speedFactor="1.00" vaporized=""/>
    <tripinfo id="right_3" depart="8.00" departLane="51o_0" departPos="5.10" departSpeed="0.00" departDelay="4.00" arrival="118.00" arrivalLane="52i_0" arrivalPos="10.00" arrivalSpeed="11.34" duration="110.00" routeLength="1015.10" waitSteps="7" timeLoss="34.19" rerouteNo="0" devices="tripinfo_right_3" vType="typeWE" speedFactor="1.00" vaporized=""/>
    <tripinfo id="left_1" depart="5.00" departLane="52o_0" departPos="5.10" departSpeed="0.00" departDelay="3.00" arrival="119.00" arrivalLane="51i_0" arrivalPos="10.00" arrivalSpeed="11.40" duration="114.00" routeLength="1015.10" waitSteps="10" timeLoss="37.55" rerouteNo="0" devices="tripinfo_left_1" vType="typeWE" speedFactor="1.00" vaporized=""/>
    <tripinfo id="left_4" depart="10.00" departLane="52o_0" departPos="5.10" departSpeed="0.00" departDelay="4.00" arrival="121.00" arrivalLane="51i_0" arrivalPos="10.00" arrivalSpeed="11.58" duration="111.00" routeLength="1015.10" waitSteps="8" timeLoss="34.45" rerouteNo="0" devices="tripinfo_left_4" vType="typeWE" speedFactor="1.00" vaporized=""/>
    <tripinfo id="right_5" depart="13.00" departLane="51o_0" departPos="5.10" departSpeed="0.00" departDelay="4.00" arrival="121.00" arrivalLane="52i_0" arrivalPos="10.00" arrivalSpeed="11.53" duration="108.00" routeLength="1015.10" waitSteps="4" timeLoss="31.79" rerouteNo="0" devices="tripinfo_right_5" vType="typeWE" speedFactor="1.00" vaporized=""/>
    <tripinfo id="down_8" depart="29.00" departLane="54o_0" departPos="7.10" departSpeed="0.00" departDelay="0.00" arrival="134.00" arrivalLane="53i_0" arrivalPos="10.00" arrivalSpeed="11.32" duration="105.00" routeLength="1013.10" waitSteps="2" timeLoss="33.13" rerouteNo="0" devices="tripinfo_down_8" vType="typeNS" speedFactor="1.00" vaporized=""/>
    <tripinfo id="left_7" depart="22.00" departLane="52o_0" departPos="5.10" departSpeed="0.00" departDelay="0.00" arrival="152.00" arrivalLane="51i_0" arrivalPos="10.00" arrivalSpeed="11.24" duration="130.00" routeLength="1015.10" waitSteps="22" timeLoss="53.88" rerouteNo="0" devices="tripinfo_left_7" vType="typeWE" speedFactor="1.00" vaporized=""/>
    <tripinfo id="right_12" depart="42.00" departLane="51o_0" departPos="5.10" departSpeed="0.00" departDelay="0.00" arrival="153.00" arrivalLane="52i_0" arrivalPos="10.00" arrivalSpeed="11.50" duration="111.00" routeLength="1015.10" waitSteps="8" timeLoss="34.82" rerouteNo="0" devices="tripinfo_right_12" vType="typeWE" speedFactor="1.00" vaporized=""/>
    <tripinfo id="left_9" depart="31.00" departLane="52o_0" departPos="5.10" departSpeed="0.00" departDelay="0.00" arrival="154.00" arrivalLane="51i_0" arrivalPos="10.00" arrivalSpeed="11.32" duration="123.00" routeLength="1015.10" waitSteps="21" timeLoss="47.09" rerouteNo="0" devices="tripinfo_left_9" vType="typeWE" speedFactor="1.00" vaporized=""/>
    <tripinfo id="right_15" depart="55.00" departLane="51o_0" departPos="5.10" departSpeed="0.00" departDelay="0.00" arrival="155.00" arrivalLane="52i_0" arrivalPos="10.00" arrivalSpeed="11.53" duration="100.00" routeLength="1015.10" waitSteps="0" timeLoss="23.58" rerouteNo="0" devices="tripinfo_right_15" vType="typeWE" speedFactor="1.00" vaporized=""/>
    <tripinfo id="right_16" depart="61.00" departLane="51o_0" departPos="5.10" departSpeed="0.00" departDelay="0.00" arrival="156.00" arrivalLane="52i_0" arrivalPos="10.00" arrivalSpeed="10.92" duration="95.00" routeLength="1015.10" waitSteps="0" timeLoss="19.00" rerouteNo="0" devices="tripinfo_right_16" vType="typeWE" speedFactor="1.00" vaporized=""/>
    <tripinfo id="left_10" depart="36.00" departLane="52o_0" departPos="5.10" departSpeed="0.00" departDelay="3.00" arrival="156.00" arrivalLane="51i_0" arrivalPos="10.00" arrivalSpeed="11.53" duration="120.00" routeLength="1015.10" waitSteps="17" timeLoss="44.05" rerouteNo="0" devices="tripinfo_left_10" vType="typeWE" speedFactor="1.00" vaporized=""/>
    <tripinfo id="left_11" depart="41.00" departLane="52o_0" departPos="5.10" departSpeed="0.00" departDelay="0.00" arrival="159.00" arrivalLane="51i_0" arrivalPos="10.00" arrivalSpeed="11.64" duration="118.00" routeLength="1015.10" waitSteps="14" timeLoss="41.67" rerouteNo="0" devices="tripinfo_left_11" vType="typeWE" speedFactor="1.00" vaporized=""/>
    <tripinfo id="right_17" depart="69.00" departLane="51o_0" departPos="5.10" departSpeed="0.00" departDelay="0.00" arrival="160.00" arrivalLane="52i_0" arrivalPos="10.00" arrivalSpeed="11.50" duration="91.00" routeLength="1015.10" waitSteps="0" timeLoss="14.87" rerouteNo="0" devices="tripinfo_right_17" vType="typeWE" speedFactor="1.00" vaporized=""/>
    <tripinfo id="left_13" depart="46.00" departLane="52o_0" departPos="5.10" departSpeed="0.00" departDelay="1.00" arrival="161.00" arrivalLane="51i_0" arrivalPos="10.00" arrivalSpeed="11.46" duration="115.00" routeLength="1015.10" waitSteps="9" timeLoss="38.53" rerouteNo="0" devices="tripinfo_left_13" vType="typeWE" speedFactor="1.00" vaporized=""/>
    <tripinfo id="left_14" depart="53.00" departLane="52o_0" departPos="5.10" departSpeed="0.00" departDelay="0.00" arrival="163.00" arrivalLane="51i_0" arrivalPos="10.00" arrivalSpeed="11.70" duration="110.00" routeLength="1015.10" waitSteps="4" timeLoss="33.40" rerouteNo="0" devices="tripinfo_left_14" vType="typeWE" speedFactor="1.00" vaporized=""/>
    <tripinfo id="down_20" depart="89.00" departLane="54o_0" departPos="7.10" departSpeed="0.00" departDelay="0.00" arrival="178.00" arrivalLane="53i_0" arrivalPos="10.00" arrivalSpeed="11.44" duration="89.00" routeLength="1013.10" waitSteps="0" timeLoss="17.33" rerouteNo="0" devices="tripinfo_down_20" vType="typeNS" speedFactor="1.00" vaporized=""/>
    <tripinfo id="down_21" depart="96.00" departLane="54o_0" departPos="7.10" departSpeed="0.00" departDelay="0.00" arrival="185.00" arrivalLane="53i_0" arrivalPos="10.00" arrivalSpeed="11.25" duration="89.00" routeLength="1013.10" waitSteps="0" timeLoss="16.71" rerouteNo="0" devices="tripinfo_down_21" vType="typeNS" speedFactor="1.00" vaporized=""/>
    <tripinfo id="right_18" depart="84.00" departLane="51o_0" departPos="5.10" departSpeed="0.00" departDelay="0.00" arrival="212.00" arrivalLane="52i_0" arrivalPos="10.00" arrivalSpeed="11.83" duration="128.00" routeLength="1015.10" waitSteps="26" timeLoss="52.04" rerouteNo="0" devices="tripinfo_right_18" vType="typeWE" speedFactor="1.00" vaporized=""/>
    <tripinfo id="left_19" depart="85.00" departLane="52o_0" departPos="5.10" departSpeed="0.00" departDelay="0.00" arrival="213.00" arrivalLane="51i_0" arrivalPos="10.00" arrivalSpeed="10.79" duration="128.00" routeLength="1015.10" waitSteps="26" timeLoss="52.03" rerouteNo="0" devices="tripinfo_left_19" vType="typeWE" speedFactor="1.00" vaporized=""/>
    <tripinfo id="right_22" depart="99.00" departLane="51o_0" departPos="5.10" departSpeed="0.00" departDelay="0.00" arrival="214.00" arrivalLane="52i_0" arrivalPos="10.00" arrivalSpeed="11.45" duration="115.00" routeLength="1015.10" waitSteps="12" timeLoss="38.88" rerouteNo="0" devices="tripinfo_right_22" vType="typeWE" speedFactor="1.00" vaporized=""/>
    <tripinfo id="down_26" depart="122.00" departLane="54o_0" departPos="7.10" departSpeed="0.00" departDelay="0.00" arrival="224.00" arrivalLane="53i_0" arrivalPos="10.00" arrivalSpeed="11.35" duration="102.00" routeLength="1013.10" waitSteps="3" timeLoss="30.60" rerouteNo="0" devices="tripinfo_down_26" vType="typeNS" speedFactor="1.00" vaporized=""/>
    <tripinfo id="left_23" depart="99.00" departLane="52o_0" departPos="5.10" departSpeed="0.00" departDelay="0.00" arrival="236.00" arrivalLane="51i_0" arrivalPos="10.00" arrivalSpeed="11.32" duration="137.00" routeLength="1015.10" waitSteps="31" timeLoss="60.90" rerouteNo="0" devices="tripinfo_left_23" vType="typeWE" speedFactor="1.00" vaporized=""/>
    <tripinfo id="right_24" depart="108.00" departLane="51o_0" departPos="5.10" departSpeed="0.00" departDelay="0.00" arrival="236.00" arrivalLane="52i_0" arrivalPos="10.00" arrivalSpeed="11.43" duration="128.00" routeLength="1015.10" waitSteps="16" timeLoss="51.42" rerouteNo="0" devices="tripinfo_right_24" vType="typeWE" speedFactor="1.00" vaporized=""/>
    <tripinfo id="left_28" depart="131.00" departLane="52o_0" departPos="5.10" departSpeed="0.00" departDelay="0.00" arrival="238.00" arrivalLane="51i_0" arrivalPos="10.00" arrivalSpeed="11.58" duration="107.00" routeLength="1015.10" waitSteps="5" timeLoss="30.95" rerouteNo="0" devices="tripinfo_left_28" vType="typeWE" speedFactor="1.00" vaporized=""/>
    <tripinfo id="down_41" depart="172.00" departLane="54o_0" departPos="7.10" departSpeed="0.00" departDelay="0.00" arrival="261.00" arrivalLane="53i_0" arrivalPos="10.00" arrivalSpeed="11.62" duration="89.00" routeLength="1013.10" waitSteps="0" timeLoss="16.62" rerouteNo="0" devices="tripinfo_down_41" vType="typeNS" speedFactor="1.00" vaporized=""/>
    <tripinfo id="right_25" depart="114.00" departLane="51o_0" departPos="5.10" departSpeed="0.00" departDelay="0.00" arrival="290.00" arrivalLane="52i_0" arrivalPos="10.00" arrivalSpeed="11.73" duration="176.00" routeLength="1015.10" waitSteps="61" timeLoss="99.39" rerouteNo="0" devices="tripinfo_right_25" vType="typeWE" speedFactor="1.00" vaporized=""/>
    <tripinfo id="left_29" depart="136.00" departLane="52o_0" departPos="5.10" departSpeed="0.00" departDelay="1.00" arrival="290.00" arrivalLane="51i_0" arrivalPos="10.00" arrivalSpeed="11.67" duration="154.00" routeLength="1015.10" waitSteps="43" timeLoss="77.95" rerouteNo="0" devices="tripinfo_left_29" vType="typeWE" speedFactor="1.00" vaporized=""/>
    <tripinfo id="left_30" depart="141.00" departLane="52o_0" departPos="5.10" departSpeed="0.00" departDelay="3.00" arrival="292.00" arrivalLane="51i_0" arrivalPos="10.00" arrivalSpeed="10.83" duration="151.00" routeLength="1015.10" waitSteps="43" timeLoss="74.94" rerouteNo="0" devices="tripinfo_left_30" vType="typeWE" speedFactor="1.00" vaporized=""/>
    <tripinfo id="right_27" depart="125.00" departLane="51o_0" departPos="5.10" departSpeed="0.00" departDelay="0.00" arrival="292.00" arrivalLane="52i_0" arrivalPos="10.00" arrivalSpeed="11.22" duration="167.00" routeLength="1015.10" waitSteps="58" timeLoss="91.07" rerouteNo="0" devices="tripinfo_right_27" vType="typeWE" speedFactor="1.00" vaporized=""/>
    <tripinfo id="right_32" depart="145.00" departLane="51o_0" departPos="5.10" departSpeed="0.00" departDelay="0.00" arrival="294.00" arrivalLane="52i_0" arrivalPos="10.00" arrivalSpeed="11.41" duration="149.00" routeLength="1015.10" waitSteps="45" timeLoss="73.07" rerouteNo="0" devices="tripinfo_right_32" vType="typeWE" speedFactor="1.00" vaporized=""/>
    <tripinfo id="left_31" depart="147.00" departLane="52o_0" departPos="5.10" departSpeed="0.00" departDelay="5.00" arrival="295.00" arrivalLane="51i_0" arrivalPos="10.00" arrivalSpeed="11.62" duration="148.00" routeLength="1015.10" waitSteps="41" timeLoss="71.58" rerouteNo="0" devices="tripinfo_left_31" vType="typeWE" speedFactor="1.00" vaporized=""/>
    <tripinfo id="right_37" depart="167.00" departLane="51o_0" departPos="5.10" departSpeed="0.00" departDelay="0.00" arrival="296.00" arrivalLane="52i_0" arrivalPos="10.00" arrivalSpeed="11.59" duration="129.00" routeLength="1015.10" waitSteps="25" timeLoss="52.77" rerouteNo="0" devices="tripinfo_right_37" vType="typeWE" speedFactor="1.00" vaporized=""/>
    <tripinfo id="left_33" depart="156.00" departLane="52o_0" departPos="5.10" departSpeed="0.00" departDelay="3.00" arrival="297.00" arrivalLane="51i_0" arrivalPos="10.00" arrivalSpeed="11.36" duration="141.00" routeLength="1015.10" waitSteps="38" timeLoss="64.39" rerouteNo="0" devices="tripinfo_left_33" vType="typeWE" speedFactor="1.00" vaporized=""/>
    <tripinfo id="right_38" depart="172.00" departLane="51o_0" departPos="5.10" departSpeed="0.00" departDelay="4.00" arrival="298.00" arrivalLane="52i_0" arrivalPos="10.00" arrivalSpeed="11.27" duration="126.00" routeLength="1015.10" waitSteps="21" timeLoss="49.81" rerouteNo="0" devices="tripinfo_right_38" vType="typeWE" speedFactor="1.00" vaporized=""/>
    <tripinfo id="left_34" depart="161.00" departLane="52o_0" departPos="5.10" departSpeed="0.00" departDelay="5.00" arrival="299.00" arrivalLane="51i_0" arrivalPos="10.00" arrivalSpeed="11.69" duration="138.00" routeLength="1015.10" waitSteps="32" timeLoss="61.65" rerouteNo="0" devices="tripinfo_left_34" vType="typeWE" speedFactor="1.00" vaporized=""/>
    <tripinfo id="right_42" depart="177.00" departLane="51o_0" departPos="5.10" departSpeed="0.00" departDelay="1.00" arrival="300.00" arrivalLane="52i_0" arrivalPos="10.00" arrivalSpeed="11.67" duration="123.00" routeLength="1015.10" waitSteps="18" timeLoss="46.59" rerouteNo="0" devices="tripinfo_right_42" vType="typeWE" speedFactor="1.00" vaporized=""/>
    <tripinfo id="left_35" depart="166.00" departLane="52o_0" departPos="5.10" departSpeed="0.00" departDelay="6.00" arrival="301.00" arrivalLane="51i_0" arrivalPos="10.00" arrivalSpeed="11.28" duration="135.00" routeLength="1015.10" waitSteps="28" timeLoss="58.84" rerouteNo="0" devices="tripinfo_left_35" vType="typeWE" speedFactor="1.00" vaporized=""/>
    <tripinfo id="right_43" depart="182.00" departLane="51o_0" departPos="5.10" departSpeed="0.00" departDelay="1.00" arrival="302.00" arrivalLane="52i_0" arrivalPos="10.00" arrivalSpeed="11.23" duration="120.00" routeLength="1015.10" waitSteps="16" timeLoss="43.50" rerouteNo="0" devices="tripinfo_right_43" vType="typeWE" speedFactor="1.00" vaporized=""/>
    <tripinfo id="left_36" depart="171.00" departLane="52o_0" departPos="5.10" departSpeed="0.00" departDelay="7.00" arrival="303.00" arrivalLane="51i_0" arrivalPos="10.00" arrivalSpeed="11.52" duration="132.00" routeLength="1015.10" waitSteps="25" timeLoss="55.61" rerouteNo="0" devices="tripinfo_left_36" vType="typeWE" speedFactor="1.00" vaporized=""/>
    <tripinfo id="right_44" depart="187.00" departLane="51o_0" departPos="5.10" departSpeed="0.00" departDelay="4.00" arrival="304.00" arrivalLane="52i_0" arrivalPos="10.00" arrivalSpeed="11.68" duration="117.00" routeLength="1015.10" waitSteps="12" timeLoss="40.73" rerouteNo="0" devices="tripinfo_right_44" vType="typeWE" speedFactor="1.00" vaporized=""/>
    <tripinfo id="left_39" depart="176.00" departLane="52o_0" departPos="5.10" departSpeed="0.00" departDelay="7.00" arrival="305.00" arrivalLane="51i_0" arrivalPos="10.00" arrivalSpeed="11.44" duration="129.00" routeLength="1015.10" waitSteps="22" timeLoss="52.66" rerouteNo="0" devices="tripinfo_left_39" vType="typeWE" speedFactor="1.00" vaporized=""/>
    <tripinfo id="right_48" depart="200.00" departLane="51o_0" departPos="5.10" departSpeed="0.00" departDelay="0.00" arrival="306.00" arrivalLane="52i_0" arrivalPos="10.00" arrivalSpeed="11.44" duration="106.00" routeLength="1015.10" waitSteps="1" timeLoss="30.19" rerouteNo="0" devices="tripinfo_right_48" vType="typeWE" speedFactor="1.00" vaporized=""/>
    <tripinfo id="left_40" depart="182.00" departLane="52o_0" departPos="5.10" departSpeed="0.00" departDelay="10.00" arrival="307.00" arrivalLane="51i_0" arrivalPos="10.00" arrivalSpeed="11.47" duration="125.00" routeLength="1015.10" waitSteps="19" timeLoss="48.47" rerouteNo="0" devices="tripinfo_left_40" vType="typeWE" speedFactor="1.00" vaporized=""/>
    <tripinfo id="left_45" depart="194.00" departLane="52o_0" departPos="5.10" departSpeed="0.00" departDelay="0.00" arrival="308.00" arrivalLane="51i_0" arrivalPos="10.00" arrivalSpeed="10.73" duration="114.00" routeLength="1015.10" waitSteps="8" timeLoss="37.94" rerouteNo="0" devices="tripinfo_left_45" vType="typeWE" speedFactor="1.00" vaporized=""/>
    <tripinfo id="right_50" depart="217.00" departLane="51o_0" departPos="5.10" departSpeed="0.00" departDelay="0.00" arrival="308.00" arrivalLane="52i_0" arrivalPos="10.00" arrivalSpeed="11.50" duration="91.00" routeLength="1015.10" waitSteps="0" timeLoss="15.00" rerouteNo="0" devices="tripinfo_right_50" vType="typeWE" speedFactor="1.00" vaporized=""/>
    <tripinfo id="left_46" depart="199.00" departLane="52o_0" departPos="5.10" departSpeed="0.00" departDelay="3.00" arrival="310.00" arrivalLane="51i_0" arrivalPos="10.00" arrivalSpeed="11.41" duration="111.00" routeLength="1015.10" waitSteps="4" timeLoss="35.12" rerouteNo="0" devices="tripinfo_left_46" vType="typeWE" speedFactor="1.00" vaporized=""/>
    <tripinfo id="left_47" depart="204.00" departLane="52o_0" departPos="5.10" departSpeed="0.00" departDelay="5.00" arrival="312.00" arrivalLane="51i_0" arrivalPos="10.00" arrivalSpeed="11.60" duration="108.00" routeLength="1015.10" waitSteps="0" timeLoss="31.93" rerouteNo="0" devices="tripinfo_left_47" vType="typeWE" speedFactor="1.00" vaporized=""/>
    <tripinfo id="right_52" depart="228.00" departLane="51o_0" departPos="5.10" departSpeed="0.00" departDelay="0.00" arrival="338.00" arrivalLane="52i_0" arrivalPos="10.00" arrivalSpeed="11.28" duration="110.00" routeLength="1015.10" waitSteps="8" timeLoss="34.02" rerouteNo="0" devices="tripinfo_right_52" vType="typeWE" speedFactor="1.00" vaporized=""/>
    <tripinfo id="left_49" depart="212.00" departLane="52o_0" departPos="5.10" departSpeed="0.00" departDelay="0.00" arrival="339.00" arrivalLane="51i_0" arrivalPos="10.00" arrivalSpeed="11.58" duration="127.00" routeLength="1015.10" waitSteps="15" timeLoss="50.57" rerouteNo="0" devices="tripinfo_left_49" vType="typeWE" speedFactor="1.00" vaporized=""/>
    <tripinfo id="right_56" depart="240.00" departLane="51o_0" departPos="5.10" departSpeed="0.00" departDelay="0.00" arrival="340.00" arrivalLane="52i_0" arrivalPos="10.00" arrivalSpeed="11.18" duration="100.00" routeLength="1015.10" waitSteps="0" timeLoss="24.16" rerouteNo="0" devices="tripinfo_right_56" vType="typeWE" speedFactor="1.00" vaporized=""/>
    <tripinfo id="left_51" depart="219.00" departLane="52o_0" departPos="5.10" departSpeed="0.00" departDelay="0.00" arrival="341.00" arrivalLane="51i_0" arrivalPos="10.00" arrivalSpeed="11.71" duration="122.00" routeLength="1015.10" waitSteps="12" timeLoss="45.37" rerouteNo="0" devices="tripinfo_left_51" vType="typeWE" speedFactor="1.00" vaporized=""/>
    <tripinfo id="left_53" depart="236.00" departLane="52o_0" departPos="5.10" departSpeed="0.00" departDelay="2.00" arrival="342.00" arrivalLane="51i_0" arrivalPos="10.00" arrivalSpeed="11.45" duration="106.00" routeLength="1015.10" waitSteps="4" timeLoss="30.25" rerouteNo="0" devices="tripinfo_left_53" vType="typeWE" speedFactor="1.00" vaporized=""/>
    <tripinfo id="left_54" depart="241.00" departLane="52o_0" departPos="5.10" departSpeed="0.00" departDelay="3.00" arrival="344.00" arrivalLane="51i_0" arrivalPos="10.00" arrivalSpeed="11.73" duration="103.00" routeLength="1015.10" waitSteps="1" timeLoss="26.94" rerouteNo="0" devices="tripinfo_left_54" vType="typeWE" speedFactor="1.00" vaporized=""/>
    <tripinfo id="down_55" depart="238.00" departLane="54o_0" departPos="7.10" departSpeed="0.00" departDelay="0.00" arrival="356.00" arrivalLane="53i_0" arrivalPos="10.00" arrivalSpeed="10.89" duration="118.00" routeLength="1013.10" waitSteps="20" timeLoss="46.46" rerouteNo="0" devices="tripinfo_down_55" vType="typeNS" speedFactor="1.00" vaporized=""/>
    <tripinfo id="left_58" depart="272.00" departLane="52o_0" departPos="5.10" departSpeed="0.00" departDelay="0.00" arrival="364.00" arrivalLane="51i_0" arrivalPos="10.00" arrivalSpeed="11.73" duration="92.00" routeLength="1015.10" waitSteps="0" timeLoss="15.24" rerouteNo="0" devices="tripinfo_left_58" vType="typeWE" speedFactor="1.00" vaporized=""/>
    <tripinfo id="left_59" depart="277.00" departLane="52o_0" departPos="5.10" departSpeed="0.00" departDelay="2.00" arrival="368.00" arrivalLane="51i_0" arrivalPos="10.00" arrivalSpeed="11.59" duration="91.00" routeLength="1015.10" waitSteps="0" timeLoss="14.78" rerouteNo="0" devices="tripinfo_left_59" vType="typeWE" speedFactor="1.00" vaporized=""/>
    <tripinfo id="down_57" depart="243.00" departLane="54o_0" departPos="7.10" departSpeed="0.00" departDelay="1.00" arrival="386.00" arrivalLane="53i_0" arrivalPos="10.00" arrivalSpeed="11.25" duration="143.00" routeLength="1013.10" waitSteps="36" timeLoss="71.66" rerouteNo="0" devices="tripinfo_down_57" vType="typeNS" speedFactor="1.00" vaporized=""/>
    <tripinfo id="down_60" depart="283.00" departLane="54o_0" departPos="7.10" departSpeed="0.00" departDelay="0.00" arrival="389.00" arrivalLane="53i_0" arrivalPos="10.00" arrivalSpeed="11.44" duration="106.00" routeLength="1013.10" waitSteps="5" timeLoss="34.51" rerouteNo="0" devices="tripinfo_down_60" vType="typeNS" speedFactor="1.00" vaporized=""/>
    <tripinfo id="down_66" depart="302.00" departLane="54o_0" departPos="7.10" departSpeed="0.00" departDelay="0.00" arrival="393.00" arrivalLane="53i_0" arrivalPos="10.00" arrivalSpeed="11.43" duration="91.00" routeLength="1013.10" waitSteps="0" timeLoss="18.70" rerouteNo="0" devices="tripinfo_down_66" vType="typeNS" speedFactor="1.00" vaporized=""/>
    <tripinfo id="right_61" depart="284.00" departLane="51o_0" departPos="5.10" departSpeed="0.00" departDelay="0.00" arrival="416.00" arrivalLane="52i_0" arrivalPos="10.00" arrivalSpeed="11.31" duration="132.00" routeLength="1015.10" waitSteps="30" timeLoss="55.80" rerouteNo="0" devices="tripinfo_right_61" vType="typeWE" speedFactor="1.00" vaporized=""/>
    <tripinfo id="right_62" depart="290.00" departLane="51o_0" departPos="5.10" departSpeed="0.00" departDelay="4.00" arrival="418.00" arrivalLane="52i_0" arrivalPos="10.00" arrivalSpeed="11.39" duration="128.00" routeLength="1015.10" waitSteps="26" timeLoss="52.11" rerouteNo="0" devices="tripinfo_right_62" vType="typeWE" speedFactor="1.00" vaporized=""/>
    <tripinfo id="right_63" depart="308.00" departLane="51o_0" departPos="5.10" departSpeed="0.00" departDelay="20.00" arrival="420.00" arrivalLane="52i_0" arrivalPos="10.00" arrivalSpeed="11.28" duration="112.00" routeLength="1015.10" waitSteps="8" timeLoss="36.13" rerouteNo="0" devices="tripinfo_right_63" vType="typeWE" speedFactor="1.00" vaporized=""/>
    <tripinfo id="down_67" depart="318.00" departLane="54o_0" departPos="7.10" departSpeed="0.00" departDelay="0.00" arrival="435.00" arrivalLane="53i_0" arrivalPos="10.00" arrivalSpeed="11.62" duration="117.00" routeLength="1013.10" waitSteps="15" timeLoss="45.15" rerouteNo="0" devices="tripinfo_down_67" vType="typeNS" speedFactor="1.00" vaporized=""/>
    <tripinfo id="down_69" depart="331.00" departLane="54o_0" departPos="7.10" departSpeed="0.00" departDelay="0.00" arrival="437.00" arrivalLane="53i_0" arrivalPos="10.00" arrivalSpeed="11.52" duration="106.00" routeLength="1013.10" waitSteps="4" timeLoss="34.39" rerouteNo="0" devices="tripinfo_down_69" vType="typeNS" speedFactor="1.00" vaporized=""/>
    <tripinfo id="down_70" depart="337.00" departLane="54o_0" departPos="7.10" departSpeed="0.00" departDelay="0.00" arrival="439.00" arrivalLane="53i_0" arrivalPos="10.00" arrivalSpeed="10.71" duration="102.00" routeLength="1013.10" waitSteps="0" timeLoss="30.42" rerouteNo="0" devices="tripinfo_down_70" vType="typeNS" speedFactor="1.00" vaporized=""/>
    <tripinfo id="right_64" depart="313.00" departLane="51o_0" departPos="5.10" departSpeed="0.00" departDelay="22.00" arrival="453.00" arrivalLane="52i_0" arrivalPos="10.00" arrivalSpeed="11.41" duration="140.00" routeLength="1015.10" waitSteps="27" timeLoss="63.45" rerouteNo="0" devices="tripinfo_right_64" vType="typeWE" speedFactor="1.00" vaporized=""/>
    <tripinfo id="left_71" depart="340.00" departLane="52o_0" departPos="5.10" departSpeed="0.00" departDelay="1.00" arrival="453.00" arrivalLane="51i_0" arrivalPos="10.00" arrivalSpeed="11.27" duration="113.00" routeLength="1015.10" waitSteps="10" timeLoss="36.85" rerouteNo="0" devices="tripinfo_left_71" vType="typeWE" speedFactor="1.00" vaporized=""/>
    <tripinfo id="down_74" depart="344.00" departLane="54o_0" departPos="7.10" departSpeed="0.00" departDelay="0.00" arrival="465.00" arrivalLane="53i_0" arrivalPos="10.00" arrivalSpeed="11.38" duration="121.00" routeLength="1013.10" waitSteps="13" timeLoss="49.04" rerouteNo="0" devices="tripinfo_down_74" vType="typeNS" speedFactor="1.00" vaporized=""/>
    <tripinfo id="left_73" depart="345.00" departLane="52o_0" departPos="5.10" departSpeed="0.00" departDelay="1.00" arrival="476.00" arrivalLane="51i_0" arrivalPos="10.00" arrivalSpeed="11.57" duration="131.00" routeLength="1015.10" waitSteps="24" timeLoss="55.26" rerouteNo="0" devices="tripinfo_left_73" vType="typeWE" speedFactor="1.00" vaporized=""/>
    <tripinfo id="right_65" depart="318.00" departLane="51o_0" departPos="5.10" departSpeed="0.00" departDelay="24.00" arrival="477.00" arrivalLane="52i_0" arrivalPos="10.00" arrivalSpeed="11.54" duration="159.00" routeLength="1015.10" waitSteps="41" timeLoss="82.84" rerouteNo="0" devices="tripinfo_right_65" vType="typeWE" speedFactor="1.00" vaporized=""/>
    <tripinfo id="left_75" depart="350.00" departLane="52o_0" departPos="5.10" departSpeed="0.00" departDelay="4.00" arrival="478.00" arrivalLane="51i_0" arrivalPos="10.00" arrivalSpeed="11.41" duration="128.00" routeLength="1015.10" waitSteps="19" timeLoss="52.19" rerouteNo="0" devices="tripinfo_left_75" vType="typeWE" speedFactor="1.00" vaporized=""/>
    <tripinfo id="down_76" depart="350.00" departLane="54o_0" departPos="7.10" departSpeed="0.00" departDelay="1.00" arrival="489.00" arrivalLane="53i_0" arrivalPos="10.00" arrivalSpeed="11.60" duration="139.00" routeLength="1013.10" waitSteps="29" timeLoss="67.34" rerouteNo="0" devices="tripinfo_down_76" vType="typeNS" speedFactor="1.00" vaporized=""/>
    <tripinfo id="right_68" depart="323.00" departLane="51o_0" departPos="5.10" departSpeed="0.00" departDelay="1.00" arrival="500.00" arrivalLane="52i_0" arrivalPos="10.00" arrivalSpeed="11.28" duration="177.00" routeLength="1015.10" waitSteps="54" timeLoss="100.79" rerouteNo="0" devices="tripinfo_right_68" vType="typeWE" speedFactor="1.00" vaporized=""/>
    <tripinfo id="left_82" depart="388.00" departLane="52o_0" departPos="5.10" departSpeed="0.00" departDelay="0.00" arrival="501.00" arrivalLane="51i_0" arrivalPos="10.00" arrivalSpeed="11.72" duration="113.00" routeLength="1015.10" waitSteps="11" timeLoss="36.65" rerouteNo="0" devices="tripinfo_left_82" vType="typeWE" speedFactor="1.00" vaporized=""/>
    <tripinfo id="down_79" depart="377.00" departLane="54o_0" departPos="7.10" departSpeed="0.00" departDelay="0.00" arrival="512.00" arrivalLane="53i_0" arrivalPos="10.00" arrivalSpeed="11.90" duration="135.00" routeLength="1013.10" waitSteps="28" timeLoss="63.52" rerouteNo="0" devices="tripinfo_down_79" vType="typeNS" speedFactor="1.00" vaporized=""/>
    <tripinfo id="down_80" depart="383.00" departLane="54o_0" departPos="7.10" departSpeed="0.00" departDelay="4.00" arrival="515.00" arrivalLane="53i_0" arrivalPos="10.00" arrivalSpeed="11.69" duration="132.00" routeLength="1013.10" waitSteps="24" timeLoss="60.36" rerouteNo="0" devices="tripinfo_down_80" vType="typeNS" speedFactor="1.00" vaporized=""/>
    <tripinfo id="down_86" depart="394.00" departLane="54o_0" departPos="7.10" departSpeed="0.00" departDelay="0.00" arrival="517.00" arrivalLane="53i_0" arrivalPos="10.00" arrivalSpeed="11.68" duration="123.00" routeLength="1013.10" waitSteps="16" timeLoss="51.50" rerouteNo="0" devices="tripinfo_down_86" vType="typeNS" speedFactor="1.00" vaporized=""/>
    <tripinfo id="left_83" depart="393.00" departLane="52o_0" departPos="5.10" departSpeed="0.00" departDelay="4.00" arrival="530.00" arrivalLane="51i_0" arrivalPos="10.00" arrivalSpeed="11.50" duration="137.00" routeLength="1015.10" waitSteps="27" timeLoss="60.96" rerouteNo="0" devices="tripinfo_left_83" vType="typeWE" speedFactor="1.00" vaporized=""/>