<?xml version="1.0" encoding="UTF-8"?>

<!-- generated on Mon Feb 26 02:48:11 2018 by SUMO Version 0.32.0
<?xml version="1.0" encoding="UTF-8"?>

<configuration xmlns:xsi="http://www.w3.org/2001/XMLSchema-instance" xsi:noNamespaceSchemaLocation="http://sumo.dlr.de/xsd/sumoConfiguration.xsd">

    <input>
        <net-file value="data/cross.net.xml"/>
        <route-files value="data/cross.rou.xml"/>
        <additional-files value="data/cross.det.xml,data/cross.det2.xml"/>
    </input>

    <output>
        <tripinfo-output value="qlepisode0_tripinfo.xml"/>
    </output>

    <time>
        <begin value="0"/>
    </time>

    <report>
        <verbose value="true"/>
        <error-log value="errors"/>
        <no-step-log value="true"/>
    </report>

    <traci_server>
        <remote-port value="54709"/>
    </traci_server>

</configuration>
-->

<tripinfos xmlns:xsi="http://www.w3.org/2001/XMLSchema-instance" xsi:noNamespaceSchemaLocation="http://sumo.dlr.de/xsd/tripinfo_file.xsd">
    <tripinfo id="down_6" depart="13.00" departLane="54o_0" departPos="7.10" departSpeed="0.00" departDelay="0.00" arrival="103.00" arrivalLane="53i_0" arrivalPos="10.00" arrivalSpeed="11.68" duration="90.00" routeLength="1013.10" waitSteps="0" timeLoss="18.61" rerouteNo="0" devices="tripinfo_down_6" vType="typeNS" speedFactor="1.00" vaporized=""/>
    <tripinfo id="left_0" depart="0.00" departLane="52o_0" departPos="5.10" departSpeed="0.00" departDelay="0.00" arrival="117.00" arrivalLane="51i_0" arrivalPos="10.00" arrivalSpeed="11.65" duration="117.00" routeLength="1015.10" waitSteps="14" timeLoss="41.05" rerouteNo="0" devices="tripinfo_left_0" vType="typeWE" speedFactor="1.00" vaporized=""/>
    <tripinfo id="right_2" depart="3.00" departLane="51o_0" departPos="5.10" departSpeed="0.00" departDelay="0.00" arrival="117.00" arrivalLane="52i_0" arrivalPos="10.00" arrivalSpeed="11.63" duration="114.00" routeLength="1015.10" waitSteps="11" timeLoss="37.61" rerouteNo="0" devices="tripinfo_right_2" vType="typeWE" speedFactor="1.00" vaporized=""/>
    <tripinfo id="down_8" depart="29.00" departLane="54o_0" departPos="7.10" departSpeed="0.00" departDelay="0.00" arrival="121.00" arrivalLane="53i_0" arrivalPos="10.00" arrivalSpeed="11.50" duration="92.00" routeLength="1013.10" waitSteps="0" timeLoss="19.83" rerouteNo="0" devices="tripinfo_down_8" vType="typeNS" speedFactor="1.00" vaporized=""/>
    <tripinfo id="left_1" depart="5.00" departLane="52o_0" departPos="5.10" departSpeed="0.00" departDelay="3.00" arrival="140.00" arrivalLane="51i_0" arrivalPos="10.00" arrivalSpeed="11.09" duration="135.00" routeLength="1015.10" waitSteps="27" timeLoss="59.06" rerouteNo="0" devices="tripinfo_left_1" vType="typeWE" speedFactor="1.00" vaporized=""/>
    <tripinfo id="right_3" depart="8.00" departLane="51o_0" departPos="5.10" departSpeed="0.00" departDelay="4.00" arrival="141.00" arrivalLane="52i_0" arrivalPos="10.00" arrivalSpeed="11.69" duration="133.00" routeLength="1015.10" waitSteps="25" timeLoss="56.67" rerouteNo="0" devices="tripinfo_right_3" vType="typeWE" speedFactor="1.00" vaporized=""/>
    <tripinfo id="left_4" depart="10.00" departLane="52o_0" departPos="5.10" departSpeed="0.00" departDelay="4.00" arrival="142.00" arrivalLane="51i_0" arrivalPos="10.00" arrivalSpeed="11.52" duration="132.00" routeLength="1015.10" waitSteps="25" timeLoss="56.12" rerouteNo="0" devices="tripinfo_left_4" vType="typeWE" speedFactor="1.00" vaporized=""/>
    <tripinfo id="right_5" depart="13.00" departLane="51o_0" departPos="5.10" departSpeed="0.00" departDelay="4.00" arrival="143.00" arrivalLane="52i_0" arrivalPos="10.00" arrivalSpeed="11.23" duration="130.00" routeLength="1015.10" waitSteps="21" timeLoss="53.37" rerouteNo="0" devices="tripinfo_right_5" vType="typeWE" speedFactor="1.00" vaporized=""/>
    <tripinfo id="left_7" depart="22.00" departLane="52o_0" departPos="5.10" departSpeed="0.00" departDelay="0.00" arrival="144.00" arrivalLane="51i_0" arrivalPos="10.00" arrivalSpeed="11.29" duration="122.00" routeLength="1015.10" waitSteps="16" timeLoss="46.22" rerouteNo="0" devices="tripinfo_left_7" vType="typeWE" speedFactor="1.00" vaporized=""/>
    <tripinfo id="right_12" depart="42.00" departLane="51o_0" departPos="5.10" departSpeed="0.00" departDelay="0.00" arrival="144.00" arrivalLane="52i_0" arrivalPos="10.00" arrivalSpeed="11.49" duration="102.00" routeLength="1015.10" waitSteps="0" timeLoss="26.19" rerouteNo="0" devices="tripinfo_right_12" vType="typeWE" speedFactor="1.00" vaporized=""/>
    <tripinfo id="left_9" depart="31.00" departLane="52o_0" departPos="5.10" departSpeed="0.00" departDelay="0.00" arrival="176.00" arrivalLane="51i_0" arrivalPos="10.00" arrivalSpeed="11.58" duration="145.00" routeLength="1015.10" waitSteps="35" timeLoss="68.93" rerouteNo="0" devices="tripinfo_left_9" vType="typeWE" speedFactor="1.00" vaporized=""/>
    <tripinfo id="right_15" depart="55.00" departLane="51o_0" departPos="5.10" departSpeed="0.00" departDelay="0.00" arrival="177.00" arrivalLane="52i_0" arrivalPos="10.00" arrivalSpeed="11.49" duration="122.00" routeLength="1015.10" waitSteps="18" timeLoss="45.65" rerouteNo="0" devices="tripinfo_right_15" vType="typeWE" speedFactor="1.00" vaporized=""/>
    <tripinfo id="down_20" depart="89.00" departLane="54o_0" departPos="7.10" departSpeed="0.00" departDelay="0.00" arrival="188.00" arrivalLane="53i_0" arrivalPos="10.00" arrivalSpeed="11.42" duration="99.00" routeLength="1013.10" waitSteps="0" timeLoss="27.10" rerouteNo="0" devices="tripinfo_down_20" vType="typeNS" speedFactor="1.00" vaporized=""/>
    <tripinfo id="left_10" depart="36.00" departLane="52o_0" departPos="5.10" departSpeed="0.00" departDelay="3.00" arrival="200.00" arrivalLane="51i_0" arrivalPos="10.00" arrivalSpeed="11.08" duration="164.00" routeLength="1015.10" waitSteps="48" timeLoss="88.06" rerouteNo="0" devices="tripinfo_left_10" vType="typeWE" speedFactor="1.00" vaporized=""/>
    <tripinfo id="right_16" depart="61.00" departLane="51o_0" departPos="5.10" departSpeed="0.00" departDelay="0.00" arrival="201.00" arrivalLane="52i_0" arrivalPos="10.00" arrivalSpeed="11.56" duration="140.00" routeLength="1015.10" waitSteps="31" timeLoss="63.72" rerouteNo="0" devices="tripinfo_right_16" vType="typeWE" speedFactor="1.00" vaporized=""/>
    <tripinfo id="left_11" depart="41.00" departLane="52o_0" departPos="5.10" departSpeed="0.00" departDelay="0.00" arrival="202.00" arrivalLane="51i_0" arrivalPos="10.00" arrivalSpeed="11.47" duration="161.00" routeLength="1015.10" waitSteps="43" timeLoss="85.12" rerouteNo="0" devices="tripinfo_left_11" vType="typeWE" speedFactor="1.00" vaporized=""/>
    <tripinfo id="right_17" depart="69.00" departLane="51o_0" departPos="5.10" departSpeed="0.00" departDelay="0.00" arrival="203.00" arrivalLane="52i_0" arrivalPos="10.00" arrivalSpeed="11.68" duration="134.00" routeLength="1015.10" waitSteps="24" timeLoss="57.78" rerouteNo="0" devices="tripinfo_right_17" vType="typeWE" speedFactor="1.00" vaporized=""/>
    <tripinfo id="left_13" depart="46.00" departLane="52o_0" departPos="5.10" departSpeed="0.00" departDelay="1.00" arrival="205.00" arrivalLane="51i_0" arrivalPos="10.00" arrivalSpeed="11.63" duration="159.00" routeLength="1015.10" waitSteps="39" timeLoss="82.42" rerouteNo="0" devices="tripinfo_left_13" vType="typeWE" speedFactor="1.00" vaporized=""/>
    <tripinfo id="right_18" depart="84.00" departLane="51o_0" departPos="5.10" departSpeed="0.00" departDelay="0.00" arrival="205.00" arrivalLane="52i_0" arrivalPos="10.00" arrivalSpeed="11.61" duration="121.00" routeLength="1015.10" waitSteps="16" timeLoss="44.79" rerouteNo="0" devices="tripinfo_right_18" vType="typeWE" speedFactor="1.00" vaporized=""/>
    <tripinfo id="down_21" depart="96.00" departLane="54o_0" departPos="7.10" departSpeed="0.00" departDelay="0.00" arrival="218.00" arrivalLane="53i_0" arrivalPos="10.00" arrivalSpeed="11.42" duration="122.00" routeLength="1013.10" waitSteps="22" timeLoss="50.52" rerouteNo="0" devices="tripinfo_down_21" vType="typeNS" speedFactor="1.00" vaporized=""/>
    <tripinfo id="down_26" depart="122.00" departLane="54o_0" departPos="7.10" departSpeed="0.00" departDelay="0.00" arrival="220.00" arrivalLane="53i_0" arrivalPos="10.00" arrivalSpeed="11.57" duration="98.00" routeLength="1013.10" waitSteps="0" timeLoss="26.48" rerouteNo="0" devices="tripinfo_down_26" vType="typeNS" speedFactor="1.00" vaporized=""/>
    <tripinfo id="left_14" depart="53.00" departLane="52o_0" departPos="5.10" departSpeed="0.00" departDelay="0.00" arrival="242.00" arrivalLane="51i_0" arrivalPos="10.00" arrivalSpeed="11.60" duration="189.00" routeLength="1015.10" waitSteps="63" timeLoss="112.63" rerouteNo="0" devices="tripinfo_left_14" vType="typeWE" speedFactor="1.00" vaporized=""/>
    <tripinfo id="right_22" depart="99.00" departLane="51o_0" departPos="5.10" departSpeed="0.00" departDelay="0.00" arrival="243.00" arrivalLane="52i_0" arrivalPos="10.00" arrivalSpeed="11.35" duration="144.00" routeLength="1015.10" waitSteps="33" timeLoss="67.81" rerouteNo="0" devices="tripinfo_right_22" vType="typeWE" speedFactor="1.00" vaporized=""/>
    <tripinfo id="left_19" depart="85.00" departLane="52o_0" departPos="5.10" departSpeed="0.00" departDelay="0.00" arrival="244.00" arrivalLane="51i_0" arrivalPos="10.00" arrivalSpeed="11.66" duration="159.00" routeLength="1015.10" waitSteps="41" timeLoss="83.18" rerouteNo="0" devices="tripinfo_left_19" vType="typeWE" speedFactor="1.00" vaporized=""/>
    <tripinfo id="right_24" depart="108.00" departLane="51o_0" departPos="5.10" departSpeed="0.00" departDelay="0.00" arrival="245.00" arrivalLane="52i_0" arrivalPos="10.00" arrivalSpeed="11.52" duration="137.00" routeLength="1015.10" waitSteps="28" timeLoss="60.82" rerouteNo="0" devices="tripinfo_right_24" vType="typeWE" speedFactor="1.00" vaporized=""/>
    <tripinfo id="left_23" depart="99.00" departLane="52o_0" departPos="5.10" departSpeed="0.00" departDelay="0.00" arrival="247.00" arrivalLane="51i_0" arrivalPos="10.00" arrivalSpeed="11.59" duration="148.00" routeLength="1015.10" waitSteps="33" timeLoss="71.88" rerouteNo="0" devices="tripinfo_left_23" vType="typeWE" speedFactor="1.00" vaporized=""/>
    <tripinfo id="right_25" depart="114.00" departLane="51o_0" departPos="5.10" departSpeed="0.00" departDelay="0.00" arrival="247.00" arrivalLane="52i_0" arrivalPos="10.00" arrivalSpeed="11.46" duration="133.00" routeLength="1015.10" waitSteps="26" timeLoss="56.64" rerouteNo="0" devices="tripinfo_right_25" vType="typeWE" speedFactor="1.00" vaporized=""/>
    <tripinfo id="left_28" depart="131.00" departLane="52o_0" departPos="5.10" departSpeed="0.00" departDelay="0.00" arrival="272.00" arrivalLane="51i_0" arrivalPos="10.00" arrivalSpeed="11.15" duration="141.00" routeLength="1015.10" waitSteps="30" timeLoss="65.18" rerouteNo="0" devices="tripinfo_left_28" vType="typeWE" speedFactor="1.00" vaporized=""/>
    <tripinfo id="right_27" depart="125.00" departLane="51o_0" departPos="5.10" departSpeed="0.00" departDelay="0.00" arrival="272.00" arrivalLane="52i_0" arrivalPos="10.00" arrivalSpeed="11.61" duration="147.00" routeLength="1015.10" waitSteps="37" timeLoss="71.22" rerouteNo="0" devices="tripinfo_right_27" vType="typeWE" speedFactor="1.00" vaporized=""/>
    <tripinfo id="down_41" depart="172.00" departLane="54o_0" departPos="7.10" departSpeed="0.00" departDelay="0.00" arrival="284.00" arrivalLane="53i_0" arrivalPos="10.00" arrivalSpeed="11.54" duration="112.00" routeLength="1013.10" waitSteps="12" timeLoss="40.77" rerouteNo="0" devices="tripinfo_down_41" vType="typeNS" speedFactor="1.00" vaporized=""/>
    <tripinfo id="right_32" depart="145.00" departLane="51o_0" departPos="5.10" departSpeed="0.00" departDelay="0.00" arrival="307.00" arrivalLane="52i_0" arrivalPos="10.00" arrivalSpeed="10.72" duration="162.00" routeLength="1015.10" waitSteps="47" timeLoss="86.05" rerouteNo="0" devices="tripinfo_right_32" vType="typeWE" speedFactor="1.00" vaporized=""/>
    <tripinfo id="left_29" depart="136.00" departLane="52o_0" departPos="5.10" departSpeed="0.00" departDelay="1.00" arrival="308.00" arrivalLane="51i_0" arrivalPos="10.00" arrivalSpeed="11.48" duration="172.00" routeLength="1015.10" waitSteps="55" timeLoss="95.90" rerouteNo="0" devices="tripinfo_left_29" vType="typeWE" speedFactor="1.00" vaporized=""/>
    <tripinfo id="left_30" depart="144.00" departLane="52o_0" departPos="5.10" departSpeed="0.00" departDelay="6.00" arrival="310.00" arrivalLane="51i_0" arrivalPos="10.00" arrivalSpeed="11.74" duration="166.00" routeLength="1015.10" waitSteps="48" timeLoss="89.71" rerouteNo="0" devices="tripinfo_left_30" vType="typeWE" speedFactor="1.00" vaporized=""/>
    <tripinfo id="left_31" depart="149.00" departLane="52o_0" departPos="5.10" departSpeed="0.00" departDelay="7.00" arrival="333.00" arrivalLane="51i_0" arrivalPos="10.00" arrivalSpeed="11.47" duration="184.00" routeLength="1015.10" waitSteps="55" timeLoss="107.81" rerouteNo="0" devices="tripinfo_left_31" vType="typeWE" speedFactor="1.00" vaporized=""/>
    <tripinfo id="right_37" depart="167.00" departLane="51o_0" departPos="5.10" departSpeed="0.00" departDelay="0.00" arrival="333.00" arrivalLane="52i_0" arrivalPos="10.00" arrivalSpeed="11.49" duration="166.00" routeLength="1015.10" waitSteps="53" timeLoss="89.72" rerouteNo="0" devices="tripinfo_right_37" vType="typeWE" speedFactor="1.00" vaporized=""/>
    <tripinfo id="left_33" depart="154.00" departLane="52o_0" departPos="5.10" departSpeed="0.00" departDelay="1.00" arrival="335.00" arrivalLane="51i_0" arrivalPos="10.00" arrivalSpeed="11.60" duration="181.00" routeLength="1015.10" waitSteps="52" timeLoss="104.82" rerouteNo="0" devices="tripinfo_left_33" vType="typeWE" speedFactor="1.00" vaporized=""/>
    <tripinfo id="right_38" depart="172.00" departLane="51o_0" departPos="5.10" departSpeed="0.00" departDelay="4.00" arrival="335.00" arrivalLane="52i_0" arrivalPos="10.00" arrivalSpeed="11.77" duration="163.00" routeLength="1015.10" waitSteps="48" timeLoss="86.76" rerouteNo="0" devices="tripinfo_right_38" vType="typeWE" speedFactor="1.00" vaporized=""/>
    <tripinfo id="left_34" depart="159.00" departLane="52o_0" departPos="5.10" departSpeed="0.00" departDelay="3.00" arrival="337.00" arrivalLane="51i_0" arrivalPos="10.00" arrivalSpeed="11.35" duration="178.00" routeLength="1015.10" waitSteps="52" timeLoss="102.10" rerouteNo="0" devices="tripinfo_left_34" vType="typeWE" speedFactor="1.00" vaporized=""/>
    <tripinfo id="right_42" depart="177.00" departLane="51o_0" departPos="5.10" departSpeed="0.00" departDelay="1.00" arrival="337.00" arrivalLane="52i_0" arrivalPos="10.00" arrivalSpeed="11.43" duration="160.00" routeLength="1015.10" waitSteps="43" timeLoss="83.67" rerouteNo="0" devices="tripinfo_right_42" vType="typeWE" speedFactor="1.00" vaporized=""/>
    <tripinfo id="left_35" depart="164.00" departLane="52o_0" departPos="5.10" departSpeed="0.00" departDelay="4.00" arrival="339.00" arrivalLane="51i_0" arrivalPos="10.00" arrivalSpeed="11.52" duration="175.00" routeLength="1015.10" waitSteps="52" timeLoss="98.91" rerouteNo="0" devices="tripinfo_left_35" vType="typeWE" speedFactor="1.00" vaporized=""/>
    <tripinfo id="right_43" depart="182.00" departLane="51o_0" departPos="5.10" departSpeed="0.00" departDelay="1.00" arrival="339.00" arrivalLane="52i_0" arrivalPos="10.00" arrivalSpeed="11.38" duration="157.00" routeLength="1015.10" waitSteps="43" timeLoss="80.37" rerouteNo="0" devices="tripinfo_right_43" vType="typeWE" speedFactor="1.00" vaporized=""/>
    <tripinfo id="left_36" depart="169.00" departLane="52o_0" departPos="5.10" departSpeed="0.00" departDelay="5.00" arrival="341.00" arrivalLane="51i_0" arrivalPos="10.00" arrivalSpeed="11.35" duration="172.00" routeLength="1015.10" waitSteps="47" timeLoss="95.66" rerouteNo="0" devices="tripinfo_left_36" vType="typeWE" speedFactor="1.00" vaporized=""/>
    <tripinfo id="right_44" depart="187.00" departLane="51o_0" departPos="5.10" departSpeed="0.00" departDelay="4.00" arrival="341.00" arrivalLane="52i_0" arrivalPos="10.00" arrivalSpeed="11.45" duration="154.00" routeLength="1015.10" waitSteps="42" timeLoss="77.50" rerouteNo="0" devices="tripinfo_right_44" vType="typeWE" speedFactor="1.00" vaporized=""/>
    <tripinfo id="right_48" depart="200.00" departLane="51o_0" departPos="5.10" departSpeed="0.00" departDelay="0.00" arrival="342.00" arrivalLane="52i_0" arrivalPos="10.00" arrivalSpeed="10.94" duration="142.00" routeLength="1015.10" waitSteps="28" timeLoss="66.04" rerouteNo="0" devices="tripinfo_right_48" vType="typeWE" speedFactor="1.00" vaporized=""/>
    <tripinfo id="left_39" depart="174.00" departLane="52o_0" departPos="5.10" departSpeed="0.00" departDelay="5.00" arrival="343.00" arrivalLane="51i_0" arrivalPos="10.00" arrivalSpeed="11.52" duration="169.00" routeLength="1015.10" waitSteps="46" timeLoss="92.41" rerouteNo="0" devices="tripinfo_left_39" vType="typeWE" speedFactor="1.00" vaporized=""/>
    <tripinfo id="left_40" depart="179.00" departLane="52o_0" departPos="5.10" departSpeed="0.00" departDelay="7.00" arrival="345.00" arrivalLane="51i_0" arrivalPos="10.00" arrivalSpeed="11.65" duration="166.00" routeLength="1015.10" waitSteps="41" timeLoss="89.36" rerouteNo="0" devices="tripinfo_left_40" vType="typeWE" speedFactor="1.00" vaporized=""/>
    <tripinfo id="right_50" depart="217.00" departLane="51o_0" departPos="5.10" departSpeed="0.00" departDelay="0.00" arrival="345.00" arrivalLane="52i_0" arrivalPos="10.00" arrivalSpeed="11.55" duration="128.00" routeLength="1015.10" waitSteps="16" timeLoss="52.01" rerouteNo="0" devices="tripinfo_right_50" vType="typeWE" speedFactor="1.00" vaporized=""/>
    <tripinfo id="left_45" depart="194.00" departLane="52o_0" departPos="5.10" departSpeed="0.00" departDelay="0.00" arrival="347.00" arrivalLane="51i_0" arrivalPos="10.00" arrivalSpeed="11.39" duration="153.00" routeLength="1015.10" waitSteps="37" timeLoss="76.40" rerouteNo="0" devices="tripinfo_left_45" vType="typeWE" speedFactor="1.00" vaporized=""/>
    <tripinfo id="right_52" depart="228.00" departLane="51o_0" departPos="5.10" departSpeed="0.00" departDelay="0.00" arrival="347.00" arrivalLane="52i_0" arrivalPos="10.00" arrivalSpeed="11.43" duration="119.00" routeLength="1015.10" waitSteps="12" timeLoss="42.75" rerouteNo="0" devices="tripinfo_right_52" vType="typeWE" speedFactor="1.00" vaporized=""/>
    <tripinfo id="left_46" depart="203.00" departLane="52o_0" departPos="5.10" departSpeed="0.00" departDelay="7.00" arrival="348.00" arrivalLane="51i_0" arrivalPos="10.00" arrivalSpeed="10.74" duration="145.00" routeLength="1015.10" waitSteps="29" timeLoss="68.99" rerouteNo="0" devices="tripinfo_left_46" vType="typeWE" speedFactor="1.00" vaporized=""/>
    <tripinfo id="down_55" depart="238.00" departLane="54o_0" departPos="7.10" departSpeed="0.00" departDelay="0.00" arrival="362.00" arrivalLane="53i_0" arrivalPos="10.00" arrivalSpeed="11.16" duration="124.00" routeLength="1013.10" waitSteps="23" timeLoss="52.81" rerouteNo="0" devices="tripinfo_down_55" vType="typeNS" speedFactor="1.00" vaporized=""/>
    <tripinfo id="down_57" depart="244.00" departLane="54o_0" departPos="7.10" departSpeed="0.00" departDelay="2.00" arrival="365.00" arrivalLane="53i_0" arrivalPos="10.00" arrivalSpeed="11.43" duration="121.00" routeLength="1013.10" waitSteps="19" timeLoss="49.20" rerouteNo="0" devices="tripinfo_down_57" vType="typeNS" speedFactor="1.00" vaporized=""/>
    <tripinfo id="down_60" depart="283.00" departLane="54o_0" departPos="7.10" departSpeed="0.00" departDelay="0.00" arrival="373.00" arrivalLane="53i_0" arrivalPos="10.00" arrivalSpeed="11.58" duration="90.00" routeLength="1013.10" waitSteps="0" timeLoss="17.58" rerouteNo="0" devices="tripinfo_down_60" vType="typeNS" speedFactor="1.00" vaporized=""/>
    <tripinfo id="left_47" depart="208.00" departLane="52o_0" departPos="5.10" departSpeed="0.00" departDelay="9.00" arrival="386.00" arrivalLane="51i_0" arrivalPos="10.00" arrivalSpeed="11.40" duration="178.00" routeLength="1015.10" waitSteps="54" timeLoss="102.17" rerouteNo="0" devices="tripinfo_left_47" vType="typeWE" speedFactor="1.00" vaporized=""/>
    <tripinfo id="right_56" depart="242.00" departLane="51o_0" departPos="5.10" departSpeed="0.00" departDelay="2.00" arrival="386.00" arrivalLane="52i_0" arrivalPos="10.00" arrivalSpeed="11.33" duration="144.00" routeLength="1015.10" waitSteps="29" timeLoss="68.13" rerouteNo="0" devices="tripinfo_right_56" vType="typeWE" speedFactor="1.00" vaporized=""/>
    <tripinfo id="left_49" depart="213.00" departLane="52o_0" departPos="5.10" departSpeed="0.00" departDelay="1.00" arrival="389.00" arrivalLane="51i_0" arrivalPos="10.00" arrivalSpeed="11.44" duration="176.00" routeLength="1015.10" waitSteps="46" timeLoss="99.78" rerouteNo="0" devices="tripinfo_left_49" vType="typeWE" speedFactor="1.00" vaporized=""/>
    <tripinfo id="right_61" depart="284.00" departLane="51o_0" departPos="5.10" departSpeed="0.00" departDelay="0.00" arrival="389.00" arrivalLane="52i_0" arrivalPos="10.00" arrivalSpeed="11.64" duration="105.00" routeLength="1015.10" waitSteps="1" timeLoss="29.11" rerouteNo="0" devices="tripinfo_right_61" vType="typeWE" speedFactor="1.00" vaporized=""/>
    <tripinfo id="left_51" depart="219.00" departLane="52o_0" departPos="5.10" departSpeed="0.00" departDelay="0.00" arrival="391.00" arrivalLane="51i_0" arrivalPos="10.00" arrivalSpeed="11.46" duration="172.00" routeLength="1015.10" waitSteps="42" timeLoss="95.74" rerouteNo="0" devices="tripinfo_left_51" vType="typeWE" speedFactor="1.00" vaporized=""/>
    <tripinfo id="right_62" depart="289.00" departLane="51o_0" departPos="5.10" departSpeed="0.00" departDelay="3.00" arrival="391.00" arrivalLane="52i_0" arrivalPos="10.00" arrivalSpeed="11.36" duration="102.00" routeLength="1015.10" waitSteps="0" timeLoss="25.90" rerouteNo="0" devices="tripinfo_right_62" vType="typeWE" speedFactor="1.00" vaporized=""/>
    <tripinfo id="left_53" depart="234.00" departLane="52o_0" departPos="5.10" departSpeed="0.00" departDelay="0.00" arrival="393.00" arrivalLane="51i_0" arrivalPos="10.00" arrivalSpeed="11.56" duration="159.00" routeLength="1015.10" waitSteps="32" timeLoss="82.75" rerouteNo="0" devices="tripinfo_left_53" vType="typeWE" speedFactor="1.00" vaporized=""/>
    <tripinfo id="right_63" depart="295.00" departLane="51o_0" departPos="5.10" departSpeed="0.00" departDelay="7.00" arrival="393.00" arrivalLane="52i_0" arrivalPos="10.00" arrivalSpeed="11.28" duration="98.00" routeLength="1015.10" waitSteps="0" timeLoss="21.75" rerouteNo="0" devices="tripinfo_right_63" vType="typeWE" speedFactor="1.00" vaporized=""/>
    <tripinfo id="left_54" depart="239.00" departLane="52o_0" departPos="5.10" departSpeed="0.00" departDelay="1.00" arrival="395.00" arrivalLane="51i_0" arrivalPos="10.00" arrivalSpeed="11.24" duration="156.00" routeLength="1015.10" waitSteps="32" timeLoss="79.70" rerouteNo="0" devices="tripinfo_left_54" vType="typeWE" speedFactor="1.00" vaporized=""/>
    <tripinfo id="right_64" depart="300.00" departLane="51o_0" departPos="5.10" departSpeed="0.00" departDelay="9.00" arrival="395.00" arrivalLane="52i_0" arrivalPos="10.00" arrivalSpeed="11.64" duration="95.00" routeLength="1015.10" waitSteps="0" timeLoss="18.42" rerouteNo="0" devices="tripinfo_right_64" vType="typeWE" speedFactor="1.00" vaporized=""/>
    <tripinfo id="right_65" depart="305.00" departLane="51o_0" departPos="5.10" departSpeed="0.00" departDelay="11.00" arrival="399.00" arrivalLane="52i_0" arrivalPos="10.00" arrivalSpeed="11.51" duration="94.00" routeLength="1015.10" waitSteps="0" timeLoss="17.52" rerouteNo="0" devices="tripinfo_right_65" vType="typeWE" speedFactor="1.00" vaporized=""/>
    <tripinfo id="down_66" depart="302.00" departLane="54o_0" departPos="7.10" departSpeed="0.00" departDelay="0.00" arrival="411.00" arrivalLane="53i_0" arrivalPos="10.00" arrivalSpeed="11.63" duration="109.00" routeLength="1013.10" waitSteps="9" timeLoss="37.75" rerouteNo="0" devices="tripinfo_down_66" vType="typeNS" speedFactor="1.00" vaporized=""/>
    <tripinfo id="down_67" depart="318.00" departLane="54o_0" departPos="7.10" departSpeed="0.00" departDelay="0.00" arrival="413.00" arrivalLane="53i_0" arrivalPos="10.00" arrivalSpeed="11.82" duration="95.00" routeLength="1013.10" waitSteps="0" timeLoss="23.75" rerouteNo="0" devices="tripinfo_down_67" vType="typeNS" speedFactor="1.00" vaporized=""/>
    <tripinfo id="left_58" depart="272.00" departLane="52o_0" departPos="5.10" departSpeed="0.00" departDelay="0.00" arrival="428.00" arrivalLane="51i_0" arrivalPos="10.00" arrivalSpeed="11.32" duration="156.00" routeLength="1015.10" waitSteps="43" timeLoss="80.24" rerouteNo="0" devices="tripinfo_left_58" vType="typeWE" speedFactor="1.00" vaporized=""/>
    <tripinfo id="right_68" depart="322.00" departLane="51o_0" departPos="5.10" departSpeed="0.00" departDelay="0.00" arrival="428.00" arrivalLane="52i_0" arrivalPos="10.00" arrivalSpeed="11.49" duration="106.00" routeLength="1015.10" waitSteps="4" timeLoss="29.97" rerouteNo="0" devices="tripinfo_right_68" vType="typeWE" speedFactor="1.00" vaporized=""/>
    <tripinfo id="left_59" depart="277.00" departLane="52o_0" departPos="5.10" departSpeed="0.00" departDelay="2.00" arrival="431.00" arrivalLane="51i_0" arrivalPos="10.00" arrivalSpeed="11.24" duration="154.00" routeLength="1015.10" waitSteps="39" timeLoss="77.56" rerouteNo="0" devices="tripinfo_left_59" vType="typeWE" speedFactor="1.00" vaporized=""/>
    <tripinfo id="left_71" depart="342.00" departLane="52o_0" departPos="5.10" departSpeed="0.00" departDelay="3.00" arrival="434.00" arrivalLane="51i_0" arrivalPos="10.00" arrivalSpeed="11.79" duration="92.00" routeLength="1015.10" waitSteps="0" timeLoss="16.02" rerouteNo="0" devices="tripinfo_left_71" vType="typeWE" speedFactor="1.00" vaporized=""/>
    <tripinfo id="left_73" depart="347.00" departLane="52o_0" departPos="5.10" departSpeed="0.00" departDelay="3.00" arrival="439.00" arrivalLane="51i_0" arrivalPos="10.00" arrivalSpeed="11.54" duration="92.00" routeLength="1015.10" waitSteps="0" timeLoss="15.74" rerouteNo="0" devices="tripinfo_left_73" vType="typeWE" speedFactor="1.00" vaporized=""/>
    <tripinfo id="down_69" depart="331.00" departLane="54o_0" departPos="7.10" departSpeed="0.00" departDelay="0.00" arrival="453.00" arrivalLane="53i_0" arrivalPos="10.00" arrivalSpeed="11.51" duration="122.00" routeLength="1013.10" waitSteps="21" timeLoss="50.17" rerouteNo="0" devices="tripinfo_down_69" vType="typeNS" speedFactor="1.00" vaporized=""/>
    <tripinfo id="left_75" depart="353.00" departLane="52o_0" departPos="5.10" departSpeed="0.00" departDelay="7.00" arrival="464.00" arrivalLane="51i_0" arrivalPos="10.00" arrivalSpeed="11.61" duration="111.00" routeLength="1015.10" waitSteps="9" timeLoss="35.10" rerouteNo="0" devices="tripinfo_left_75" vType="typeWE" speedFactor="1.00" vaporized=""/>
    <tripinfo id="right_72" depart="348.00" departLane="51o_0" departPos="5.10" departSpeed="0.00" departDelay="6.00" arrival="464.00" arrivalLane="52i_0" arrivalPos="10.00" arrivalSpeed="11.54" duration="116.00" routeLength="1015.10" waitSteps="12" timeLoss="39.69" rerouteNo="0" devices="tripinfo_right_72" vType="typeWE" speedFactor="1.00" vaporized=""/>
    <tripinfo id="right_77" depart="354.00" departLane="51o_0" departPos="5.10" departSpeed="0.00" departDelay="0.00" arrival="466.00" arrivalLane="52i_0" arrivalPos="10.00" arrivalSpeed="11.36" duration="112.00" routeLength="1015.10" waitSteps="11" timeLoss="35.52" rerouteNo="0" devices="tripinfo_right_77" vType="typeWE" speedFactor="1.00" vaporized=""/>
    <tripinfo id="down_70" depart="337.00" departLane="54o_0" departPos="7.10" departSpeed="0.00" departDelay="0.00" arrival="477.00" arrivalLane="53i_0" arrivalPos="10.00" arrivalSpeed="11.52" duration="140.00" routeLength="1013.10" waitSteps="34" timeLoss="68.16" rerouteNo="0" devices="tripinfo_down_70" vType="typeNS" speedFactor="1.00" vaporized=""/>
    <tripinfo id="down_74" depart="344.00" departLane="54o_0" departPos="7.10" departSpeed="0.00" departDelay="0.00" arrival="479.00" arrivalLane="53i_0" arrivalPos="10.00" arrivalSpeed="11.68" duration="135.00" routeLength="1013.10" waitSteps="26" timeLoss="63.53" rerouteNo="0" devices="tripinfo_down_74" vType="typeNS" speedFactor="1.00" vaporized=""/>
    <tripinfo id="down_76" depart="350.00" departLane="54o_0" departPos="7.10" departSpeed="0.00" departDelay="1.00" arrival="482.00" arrivalLane="53i_0" arrivalPos="10.00" arrivalSpeed="11.75" duration="132.00" routeLength="1013.10" waitSteps="22" timeLoss="59.98" rerouteNo="0" devices="tripinfo_down_76" vType="typeNS" speedFactor="1.00" vaporized=""/>
    <tripinfo id="left_82" depart="389.00" departLane="52o_0" departPos="5.10" departSpeed="0.00" departDelay="1.00" arrival="494.00" arrivalLane="51i_0" arrivalPos="10.00" arrivalSpeed="11.45" duration="105.00" routeLength="1015.10" waitSteps="4" timeLoss="28.82" rerouteNo="0" devices="tripinfo_left_82" vType="typeWE" speedFactor="1.00" vaporized=""/>
    <tripinfo id="right_78" depart="375.00" departLane="51o_0" departPos="5.10" departSpeed="0.00" departDelay="0.00" arrival="494.00" arrivalLane="52i_0" arrivalPos="10.00" arrivalSpeed="11.61" duration="119.00" routeLength="1015.10" waitSteps="16" timeLoss="42.95" rerouteNo="0" devices="tripinfo_right_78" vType="typeWE" speedFactor="1.00" vaporized=""/>
    <tripinfo id="left_83" depart="395.00" departLane="52o_0" departPos="5.10" departSpeed="0.00" departDelay="6.00" arrival="496.00" arrivalLane="51i_0" arrivalPos="10.00" arrivalSpeed="11.60" duration="101.00" routeLength="1015.10" waitSteps="0" timeLoss="24.58" rerouteNo="0" devices="tripinfo_left_83" vType="typeWE" speedFactor="1.00" vaporized=""/>