<?xml version="1.0" encoding="UTF-8"?>

<!-- generated on Mon Feb 26 02:59:57 2018 by SUMO Version 0.32.0
<?xml version="1.0" encoding="UTF-8"?>

<configuration xmlns:xsi="http://www.w3.org/2001/XMLSchema-instance" xsi:noNamespaceSchemaLocation="http://sumo.dlr.de/xsd/sumoConfiguration.xsd">

    <input>
        <net-file value="data/cross.net.xml"/>
        <route-files value="data/cross.rou.xml"/>
        <additional-files value="data/cross.det.xml,data/cross.det2.xml"/>
    </input>

    <output>
        <tripinfo-output value="qlepisode8_tripinfo.xml"/>
    </output>

    <time>
        <begin value="0"/>
    </time>

    <report>
        <verbose value="true"/>
        <error-log value="errors"/>
        <no-step-log value="true"/>
    </report>

    <traci_server>
        <remote-port value="54830"/>
    </traci_server>

</configuration>
-->

<tripinfos xmlns:xsi="http://www.w3.org/2001/XMLSchema-instance" xsi:noNamespaceSchemaLocation="http://sumo.dlr.de/xsd/tripinfo_file.xsd">
    <tripinfo id="left_0" depart="0.00" departLane="52o_0" departPos="5.10" departSpeed="0.00" departDelay="0.00" arrival="104.00" arrivalLane="51i_0" arrivalPos="10.00" arrivalSpeed="11.08" duration="104.00" routeLength="1015.10" waitSteps="2" timeLoss="28.02" rerouteNo="0" devices="tripinfo_left_0" vType="typeWE" speedFactor="1.00" vaporized=""/>
    <tripinfo id="right_2" depart="3.00" departLane="51o_0" departPos="5.10" departSpeed="0.00" departDelay="0.00" arrival="104.00" arrivalLane="52i_0" arrivalPos="10.00" arrivalSpeed="11.84" duration="101.00" routeLength="1015.10" waitSteps="0" timeLoss="24.49" rerouteNo="0" devices="tripinfo_right_2" vType="typeWE" speedFactor="1.00" vaporized=""/>
    <tripinfo id="left_1" depart="5.00" departLane="52o_0" departPos="5.10" departSpeed="0.00" departDelay="3.00" arrival="106.00" arrivalLane="51i_0" arrivalPos="10.00" arrivalSpeed="11.53" duration="101.00" routeLength="1015.10" waitSteps="0" timeLoss="25.07" rerouteNo="0" devices="tripinfo_left_1" vType="typeWE" speedFactor="1.00" vaporized=""/>
    <tripinfo id="right_3" depart="8.00" departLane="51o_0" departPos="5.10" departSpeed="0.00" departDelay="4.00" arrival="107.00" arrivalLane="52i_0" arrivalPos="10.00" arrivalSpeed="11.76" duration="99.00" routeLength="1015.10" waitSteps="0" timeLoss="22.52" rerouteNo="0" devices="tripinfo_right_3" vType="typeWE" speedFactor="1.00" vaporized=""/>
    <tripinfo id="down_6" depart="13.00" departLane="54o_0" departPos="7.10" departSpeed="0.00" departDelay="0.00" arrival="117.00" arrivalLane="53i_0" arrivalPos="10.00" arrivalSpeed="11.37" duration="104.00" routeLength="1013.10" waitSteps="3" timeLoss="32.44" rerouteNo="0" devices="tripinfo_down_6" vType="typeNS" speedFactor="1.00" vaporized=""/>
    <tripinfo id="left_4" depart="10.00" departLane="52o_0" departPos="5.10" departSpeed="0.00" departDelay="4.00" arrival="128.00" arrivalLane="51i_0" arrivalPos="10.00" arrivalSpeed="11.80" duration="118.00" routeLength="1015.10" waitSteps="15" timeLoss="42.11" rerouteNo="0" devices="tripinfo_left_4" vType="typeWE" speedFactor="1.00" vaporized=""/>
    <tripinfo id="right_5" depart="13.00" departLane="51o_0" departPos="5.10" departSpeed="0.00" departDelay="4.00" arrival="129.00" arrivalLane="52i_0" arrivalPos="10.00" arrivalSpeed="11.43" duration="116.00" routeLength="1015.10" waitSteps="14" timeLoss="39.52" rerouteNo="0" devices="tripinfo_right_5" vType="typeWE" speedFactor="1.00" vaporized=""/>
    <tripinfo id="left_7" depart="22.00" departLane="52o_0" departPos="5.10" departSpeed="0.00" departDelay="0.00" arrival="131.00" arrivalLane="51i_0" arrivalPos="10.00" arrivalSpeed="11.55" duration="109.00" routeLength="1015.10" waitSteps="6" timeLoss="32.67" rerouteNo="0" devices="tripinfo_left_7" vType="typeWE" speedFactor="1.00" vaporized=""/>
    <tripinfo id="right_12" depart="42.00" departLane="51o_0" departPos="5.10" departSpeed="0.00" departDelay="0.00" arrival="133.00" arrivalLane="52i_0" arrivalPos="10.00" arrivalSpeed="11.40" duration="91.00" routeLength="1015.10" waitSteps="0" timeLoss="14.81" rerouteNo="0" devices="tripinfo_right_12" vType="typeWE" speedFactor="1.00" vaporized=""/>
    <tripinfo id="left_9" depart="31.00" departLane="52o_0" departPos="5.10" departSpeed="0.00" departDelay="0.00" arrival="133.00" arrivalLane="51i_0" arrivalPos="10.00" arrivalSpeed="11.51" duration="102.00" routeLength="1015.10" waitSteps="0" timeLoss="25.59" rerouteNo="0" devices="tripinfo_left_9" vType="typeWE" speedFactor="1.00" vaporized=""/>
    <tripinfo id="left_10" depart="36.00" departLane="52o_0" departPos="5.10" departSpeed="0.00" departDelay="3.00" arrival="135.00" arrivalLane="51i_0" arrivalPos="10.00" arrivalSpeed="11.44" duration="99.00" routeLength="1015.10" waitSteps="0" timeLoss="22.35" rerouteNo="0" devices="tripinfo_left_10" vType="typeWE" speedFactor="1.00" vaporized=""/>
    <tripinfo id="left_11" depart="41.00" departLane="52o_0" departPos="5.10" departSpeed="0.00" departDelay="0.00" arrival="136.00" arrivalLane="51i_0" arrivalPos="10.00" arrivalSpeed="10.77" duration="95.00" routeLength="1015.10" waitSteps="0" timeLoss="18.97" rerouteNo="0" devices="tripinfo_left_11" vType="typeWE" speedFactor="1.00" vaporized=""/>
    <tripinfo id="left_13" depart="46.00" departLane="52o_0" departPos="5.10" departSpeed="0.00" departDelay="1.00" arrival="138.00" arrivalLane="51i_0" arrivalPos="10.00" arrivalSpeed="11.42" duration="92.00" routeLength="1015.10" waitSteps="0" timeLoss="15.87" rerouteNo="0" devices="tripinfo_left_13" vType="typeWE" speedFactor="1.00" vaporized=""/>
    <tripinfo id="down_8" depart="29.00" departLane="54o_0" departPos="7.10" departSpeed="0.00" departDelay="0.00" arrival="153.00" arrivalLane="53i_0" arrivalPos="10.00" arrivalSpeed="11.66" duration="124.00" routeLength="1013.10" waitSteps="22" timeLoss="52.13" rerouteNo="0" devices="tripinfo_down_8" vType="typeNS" speedFactor="1.00" vaporized=""/>
    <tripinfo id="right_15" depart="55.00" departLane="51o_0" departPos="5.10" departSpeed="0.00" departDelay="0.00" arrival="163.00" arrivalLane="52i_0" arrivalPos="10.00" arrivalSpeed="11.31" duration="108.00" routeLength="1015.10" waitSteps="6" timeLoss="32.11" rerouteNo="0" devices="tripinfo_right_15" vType="typeWE" speedFactor="1.00" vaporized=""/>
    <tripinfo id="left_14" depart="53.00" departLane="52o_0" departPos="5.10" departSpeed="0.00" departDelay="0.00" arrival="164.00" arrivalLane="51i_0" arrivalPos="10.00" arrivalSpeed="11.41" duration="111.00" routeLength="1015.10" waitSteps="9" timeLoss="35.13" rerouteNo="0" devices="tripinfo_left_14" vType="typeWE" speedFactor="1.00" vaporized=""/>
    <tripinfo id="right_16" depart="61.00" departLane="51o_0" departPos="5.10" departSpeed="0.00" departDelay="0.00" arrival="165.00" arrivalLane="52i_0" arrivalPos="10.00" arrivalSpeed="11.23" duration="104.00" routeLength="1015.10" waitSteps="3" timeLoss="28.16" rerouteNo="0" devices="tripinfo_right_16" vType="typeWE" speedFactor="1.00" vaporized=""/>
    <tripinfo id="left_19" depart="85.00" departLane="52o_0" departPos="5.10" departSpeed="0.00" departDelay="0.00" arrival="187.00" arrivalLane="51i_0" arrivalPos="10.00" arrivalSpeed="11.54" duration="102.00" routeLength="1015.10" waitSteps="0" timeLoss="26.21" rerouteNo="0" devices="tripinfo_left_19" vType="typeWE" speedFactor="1.00" vaporized=""/>
    <tripinfo id="right_17" depart="69.00" departLane="51o_0" departPos="5.10" departSpeed="0.00" departDelay="0.00" arrival="188.00" arrivalLane="52i_0" arrivalPos="10.00" arrivalSpeed="11.49" duration="119.00" routeLength="1015.10" waitSteps="14" timeLoss="43.13" rerouteNo="0" devices="tripinfo_right_17" vType="typeWE" speedFactor="1.00" vaporized=""/>
    <tripinfo id="right_18" depart="84.00" departLane="51o_0" departPos="5.10" departSpeed="0.00" departDelay="0.00" arrival="190.00" arrivalLane="52i_0" arrivalPos="10.00" arrivalSpeed="11.71" duration="106.00" routeLength="1015.10" waitSteps="4" timeLoss="29.93" rerouteNo="0" devices="tripinfo_right_18" vType="typeWE" speedFactor="1.00" vaporized=""/>
    <tripinfo id="down_20" depart="89.00" departLane="54o_0" departPos="7.10" departSpeed="0.00" departDelay="0.00" arrival="200.00" arrivalLane="53i_0" arrivalPos="10.00" arrivalSpeed="11.42" duration="111.00" routeLength="1013.10" waitSteps="11" timeLoss="39.50" rerouteNo="0" devices="tripinfo_down_20" vType="typeNS" speedFactor="1.00" vaporized=""/>
    <tripinfo id="down_21" depart="96.00" departLane="54o_0" departPos="7.10" departSpeed="0.00" departDelay="0.00" arrival="203.00" arrivalLane="53i_0" arrivalPos="10.00" arrivalSpeed="11.76" duration="107.00" routeLength="1013.10" waitSteps="5" timeLoss="35.01" rerouteNo="0" devices="tripinfo_down_21" vType="typeNS" speedFactor="1.00" vaporized=""/>
    <tripinfo id="down_26" depart="122.00" departLane="54o_0" departPos="7.10" departSpeed="0.00" departDelay="0.00" arrival="212.00" arrivalLane="53i_0" arrivalPos="10.00" arrivalSpeed="11.39" duration="90.00" routeLength="1013.10" waitSteps="0" timeLoss="17.90" rerouteNo="0" devices="tripinfo_down_26" vType="typeNS" speedFactor="1.00" vaporized=""/>
    <tripinfo id="right_22" depart="99.00" departLane="51o_0" departPos="5.10" departSpeed="0.00" departDelay="0.00" arrival="224.00" arrivalLane="52i_0" arrivalPos="10.00" arrivalSpeed="11.88" duration="125.00" routeLength="1015.10" waitSteps="23" timeLoss="49.14" rerouteNo="0" devices="tripinfo_right_22" vType="typeWE" speedFactor="1.00" vaporized=""/>
    <tripinfo id="left_23" depart="99.00" departLane="52o_0" departPos="5.10" departSpeed="0.00" departDelay="0.00" arrival="224.00" arrivalLane="51i_0" arrivalPos="10.00" arrivalSpeed="11.42" duration="125.00" routeLength="1015.10" waitSteps="23" timeLoss="48.87" rerouteNo="0" devices="tripinfo_left_23" vType="typeWE" speedFactor="1.00" vaporized=""/>
    <tripinfo id="right_24" depart="108.00" departLane="51o_0" departPos="5.10" departSpeed="0.00" departDelay="0.00" arrival="226.00" arrivalLane="52i_0" arrivalPos="10.00" arrivalSpeed="11.43" duration="118.00" routeLength="1015.10" waitSteps="14" timeLoss="41.95" rerouteNo="0" devices="tripinfo_right_24" vType="typeWE" speedFactor="1.00" vaporized=""/>
    <tripinfo id="left_28" depart="133.00" departLane="52o_0" departPos="5.10" departSpeed="0.00" departDelay="2.00" arrival="226.00" arrivalLane="51i_0" arrivalPos="10.00" arrivalSpeed="11.21" duration="93.00" routeLength="1015.10" waitSteps="0" timeLoss="16.55" rerouteNo="0" devices="tripinfo_left_28" vType="typeWE" speedFactor="1.00" vaporized=""/>
    <tripinfo id="right_25" depart="114.00" departLane="51o_0" departPos="5.10" departSpeed="0.00" departDelay="0.00" arrival="228.00" arrivalLane="52i_0" arrivalPos="10.00" arrivalSpeed="11.42" duration="114.00" routeLength="1015.10" waitSteps="10" timeLoss="37.93" rerouteNo="0" devices="tripinfo_right_25" vType="typeWE" speedFactor="1.00" vaporized=""/>
    <tripinfo id="right_27" depart="125.00" departLane="51o_0" departPos="5.10" departSpeed="0.00" departDelay="0.00" arrival="230.00" arrivalLane="52i_0" arrivalPos="10.00" arrivalSpeed="11.56" duration="105.00" routeLength="1015.10" waitSteps="2" timeLoss="28.85" rerouteNo="0" devices="tripinfo_right_27" vType="typeWE" speedFactor="1.00" vaporized=""/>
    <tripinfo id="down_41" depart="172.00" departLane="54o_0" departPos="7.10" departSpeed="0.00" departDelay="0.00" arrival="260.00" arrivalLane="53i_0" arrivalPos="10.00" arrivalSpeed="11.62" duration="88.00" routeLength="1013.10" waitSteps="0" timeLoss="16.48" rerouteNo="0" devices="tripinfo_down_41" vType="typeNS" speedFactor="1.00" vaporized=""/>
    <tripinfo id="right_32" depart="145.00" departLane="51o_0" departPos="5.10" departSpeed="0.00" departDelay="0.00" arrival="277.00" arrivalLane="52i_0" arrivalPos="10.00" arrivalSpeed="11.33" duration="132.00" routeLength="1015.10" waitSteps="31" timeLoss="56.15" rerouteNo="0" devices="tripinfo_right_32" vType="typeWE" speedFactor="1.00" vaporized=""/>
    <tripinfo id="left_29" depart="138.00" departLane="52o_0" departPos="5.10" departSpeed="0.00" departDelay="3.00" arrival="278.00" arrivalLane="51i_0" arrivalPos="10.00" arrivalSpeed="10.93" duration="140.00" routeLength="1015.10" waitSteps="39" timeLoss="64.00" rerouteNo="0" devices="tripinfo_left_29" vType="typeWE" speedFactor="1.00" vaporized=""/>
    <tripinfo id="right_37" depart="167.00" departLane="51o_0" departPos="5.10" departSpeed="0.00" departDelay="0.00" arrival="280.00" arrivalLane="52i_0" arrivalPos="10.00" arrivalSpeed="11.67" duration="113.00" routeLength="1015.10" waitSteps="10" timeLoss="36.73" rerouteNo="0" devices="tripinfo_right_37" vType="typeWE" speedFactor="1.00" vaporized=""/>
    <tripinfo id="left_30" depart="143.00" departLane="52o_0" departPos="5.10" departSpeed="0.00" departDelay="5.00" arrival="280.00" arrivalLane="51i_0" arrivalPos="10.00" arrivalSpeed="11.44" duration="137.00" routeLength="1015.10" waitSteps="36" timeLoss="61.05" rerouteNo="0" devices="tripinfo_left_30" vType="typeWE" speedFactor="1.00" vaporized=""/>
    <tripinfo id="right_38" depart="172.00" departLane="51o_0" departPos="5.10" departSpeed="0.00" departDelay="4.00" arrival="282.00" arrivalLane="52i_0" arrivalPos="10.00" arrivalSpeed="11.44" duration="110.00" routeLength="1015.10" waitSteps="7" timeLoss="34.23" rerouteNo="0" devices="tripinfo_right_38" vType="typeWE" speedFactor="1.00" vaporized=""/>
    <tripinfo id="left_31" depart="148.00" departLane="52o_0" departPos="5.10" departSpeed="0.00" departDelay="6.00" arrival="283.00" arrivalLane="51i_0" arrivalPos="10.00" arrivalSpeed="11.90" duration="135.00" routeLength="1015.10" waitSteps="31" timeLoss="58.78" rerouteNo="0" devices="tripinfo_left_31" vType="typeWE" speedFactor="1.00" vaporized=""/>
    <tripinfo id="left_33" depart="153.00" departLane="52o_0" departPos="5.10" departSpeed="0.00" departDelay="0.00" arrival="320.00" arrivalLane="51i_0" arrivalPos="10.00" arrivalSpeed="11.46" duration="167.00" routeLength="1015.10" waitSteps="55" timeLoss="90.89" rerouteNo="0" devices="tripinfo_left_33" vType="typeWE" speedFactor="1.00" vaporized=""/>
    <tripinfo id="right_42" depart="177.00" departLane="51o_0" departPos="5.10" departSpeed="0.00" departDelay="1.00" arrival="321.00" arrivalLane="52i_0" arrivalPos="10.00" arrivalSpeed="11.20" duration="144.00" routeLength="1015.10" waitSteps="33" timeLoss="67.43" rerouteNo="0" devices="tripinfo_right_42" vType="typeWE" speedFactor="1.00" vaporized=""/>
    <tripinfo id="left_34" depart="159.00" departLane="52o_0" departPos="5.10" departSpeed="0.00" departDelay="3.00" arrival="322.00" arrivalLane="51i_0" arrivalPos="10.00" arrivalSpeed="11.62" duration="163.00" routeLength="1015.10" waitSteps="50" timeLoss="86.69" rerouteNo="0" devices="tripinfo_left_34" vType="typeWE" speedFactor="1.00" vaporized=""/>
    <tripinfo id="down_55" depart="238.00" departLane="54o_0" departPos="7.10" departSpeed="0.00" departDelay="0.00" arrival="327.00" arrivalLane="53i_0" arrivalPos="10.00" arrivalSpeed="11.30" duration="89.00" routeLength="1013.10" waitSteps="0" timeLoss="17.55" rerouteNo="0" devices="tripinfo_down_55" vType="typeNS" speedFactor="1.00" vaporized=""/>
    <tripinfo id="left_35" depart="165.00" departLane="52o_0" departPos="5.10" departSpeed="0.00" departDelay="5.00" arrival="344.00" arrivalLane="51i_0" arrivalPos="10.00" arrivalSpeed="11.39" duration="179.00" routeLength="1015.10" waitSteps="62" timeLoss="103.00" rerouteNo="0" devices="tripinfo_left_35" vType="typeWE" speedFactor="1.00" vaporized=""/>
    <tripinfo id="right_43" depart="182.00" departLane="51o_0" departPos="5.10" departSpeed="0.00" departDelay="1.00" arrival="345.00" arrivalLane="52i_0" arrivalPos="10.00" arrivalSpeed="11.57" duration="163.00" routeLength="1015.10" waitSteps="46" timeLoss="86.44" rerouteNo="0" devices="tripinfo_right_43" vType="typeWE" speedFactor="1.00" vaporized=""/>
    <tripinfo id="right_44" depart="187.00" departLane="51o_0" departPos="5.10" departSpeed="0.00" departDelay="4.00" arrival="346.00" arrivalLane="52i_0" arrivalPos="10.00" arrivalSpeed="11.42" duration="159.00" routeLength="1015.10" waitSteps="44" timeLoss="83.15" rerouteNo="0" devices="tripinfo_right_44" vType="typeWE" speedFactor="1.00" vaporized=""/>
    <tripinfo id="down_57" depart="244.00" departLane="54o_0" departPos="7.10" departSpeed="0.00" departDelay="2.00" arrival="356.00" arrivalLane="53i_0" arrivalPos="10.00" arrivalSpeed="11.49" duration="112.00" routeLength="1013.10" waitSteps="13" timeLoss="40.67" rerouteNo="0" devices="tripinfo_down_57" vType="typeNS" speedFactor="1.00" vaporized=""/>
    <tripinfo id="right_48" depart="200.00" departLane="51o_0" departPos="5.10" departSpeed="0.00" departDelay="0.00" arrival="380.00" arrivalLane="52i_0" arrivalPos="10.00" arrivalSpeed="11.46" duration="180.00" routeLength="1015.10" waitSteps="66" timeLoss="103.94" rerouteNo="0" devices="tripinfo_right_48" vType="typeWE" speedFactor="1.00" vaporized=""/>
    <tripinfo id="left_36" depart="170.00" departLane="52o_0" departPos="5.10" departSpeed="0.00" departDelay="6.00" arrival="380.00" arrivalLane="51i_0" arrivalPos="10.00" arrivalSpeed="11.75" duration="210.00" routeLength="1015.10" waitSteps="84" timeLoss="134.29" rerouteNo="0" devices="tripinfo_left_36" vType="typeWE" speedFactor="1.00" vaporized=""/>
    <tripinfo id="right_50" depart="217.00" departLane="51o_0" departPos="5.10" departSpeed="0.00" departDelay="0.00" arrival="383.00" arrivalLane="52i_0" arrivalPos="10.00" arrivalSpeed="11.79" duration="166.00" routeLength="1015.10" waitSteps="50" timeLoss="89.41" rerouteNo="0" devices="tripinfo_right_50" vType="typeWE" speedFactor="1.00" vaporized=""/>
    <tripinfo id="left_39" depart="175.00" departLane="52o_0" departPos="5.10" departSpeed="0.00" departDelay="6.00" arrival="383.00" arrivalLane="51i_0" arrivalPos="10.00" arrivalSpeed="11.61" duration="208.00" routeLength="1015.10" waitSteps="77" timeLoss="131.36" rerouteNo="0" devices="tripinfo_left_39" vType="typeWE" speedFactor="1.00" vaporized=""/>
    <tripinfo id="right_52" depart="228.00" departLane="51o_0" departPos="5.10" departSpeed="0.00" departDelay="0.00" arrival="385.00" arrivalLane="52i_0" arrivalPos="10.00" arrivalSpeed="11.66" duration="157.00" routeLength="1015.10" waitSteps="40" timeLoss="80.60" rerouteNo="0" devices="tripinfo_right_52" vType="typeWE" speedFactor="1.00" vaporized=""/>
    <tripinfo id="left_40" depart="181.00" departLane="52o_0" departPos="5.10" departSpeed="0.00" departDelay="9.00" arrival="385.00" arrivalLane="51i_0" arrivalPos="10.00" arrivalSpeed="11.59" duration="204.00" routeLength="1015.10" waitSteps="71" timeLoss="128.18" rerouteNo="0" devices="tripinfo_left_40" vType="typeWE" speedFactor="1.00" vaporized=""/>
    <tripinfo id="down_60" depart="283.00" departLane="54o_0" departPos="7.10" departSpeed="0.00" departDelay="0.00" arrival="399.00" arrivalLane="53i_0" arrivalPos="10.00" arrivalSpeed="11.39" duration="116.00" routeLength="1013.10" waitSteps="14" timeLoss="44.17" rerouteNo="0" devices="tripinfo_down_60" vType="typeNS" speedFactor="1.00" vaporized=""/>
    <tripinfo id="right_56" depart="240.00" departLane="51o_0" departPos="5.10" departSpeed="0.00" departDelay="0.00" arrival="410.00" arrivalLane="52i_0" arrivalPos="10.00" arrivalSpeed="11.38" duration="170.00" routeLength="1015.10" waitSteps="49" timeLoss="93.99" rerouteNo="0" devices="tripinfo_right_56" vType="typeWE" speedFactor="1.00" vaporized=""/>
    <tripinfo id="left_45" depart="194.00" departLane="52o_0" departPos="5.10" departSpeed="0.00" departDelay="0.00" arrival="410.00" arrivalLane="51i_0" arrivalPos="10.00" arrivalSpeed="11.71" duration="216.00" routeLength="1015.10" waitSteps="78" timeLoss="140.27" rerouteNo="0" devices="tripinfo_left_45" vType="typeWE" speedFactor="1.00" vaporized=""/>
    <tripinfo id="down_66" depart="302.00" departLane="54o_0" departPos="7.10" departSpeed="0.00" departDelay="0.00" arrival="423.00" arrivalLane="53i_0" arrivalPos="10.00" arrivalSpeed="11.33" duration="121.00" routeLength="1013.10" waitSteps="16" timeLoss="49.81" rerouteNo="0" devices="tripinfo_down_66" vType="typeNS" speedFactor="1.00" vaporized=""/>
    <tripinfo id="down_67" depart="318.00" departLane="54o_0" departPos="7.10" departSpeed="0.00" departDelay="0.00" arrival="425.00" arrivalLane="53i_0" arrivalPos="10.00" arrivalSpeed="11.84" duration="107.00" routeLength="1013.10" waitSteps="5" timeLoss="35.78" rerouteNo="0" devices="tripinfo_down_67" vType="typeNS" speedFactor="1.00" vaporized=""/>
    <tripinfo id="down_69" depart="331.00" departLane="54o_0" departPos="7.10" departSpeed="0.00" departDelay="0.00" arrival="428.00" arrivalLane="53i_0" arrivalPos="10.00" arrivalSpeed="11.75" duration="97.00" routeLength="1013.10" waitSteps="0" timeLoss="24.96" rerouteNo="0" devices="tripinfo_down_69" vType="typeNS" speedFactor="1.00" vaporized=""/>
    <tripinfo id="left_46" depart="199.00" departLane="52o_0" departPos="5.10" departSpeed="0.00" departDelay="3.00" arrival="440.00" arrivalLane="51i_0" arrivalPos="10.00" arrivalSpeed="11.39" duration="241.00" routeLength="1015.10" waitSteps="102" timeLoss="164.99" rerouteNo="0" devices="tripinfo_left_46" vType="typeWE" speedFactor="1.00" vaporized=""/>
    <tripinfo id="right_61" depart="284.00" departLane="51o_0" departPos="5.10" departSpeed="0.00" departDelay="0.00" arrival="441.00" arrivalLane="52i_0" arrivalPos="10.00" arrivalSpeed="11.42" duration="157.00" routeLength="1015.10" waitSteps="40" timeLoss="80.57" rerouteNo="0" devices="tripinfo_right_61" vType="typeWE" speedFactor="1.00" vaporized=""/>
    <tripinfo id="right_62" depart="289.00" departLane="51o_0" departPos="5.10" departSpeed="0.00" departDelay="3.00" arrival="442.00" arrivalLane="52i_0" arrivalPos="10.00" arrivalSpeed="10.84" duration="153.00" routeLength="1015.10" waitSteps="37" timeLoss="77.02" rerouteNo="0" devices="tripinfo_right_62" vType="typeWE" speedFactor="1.00" vaporized=""/>
    <tripinfo id="down_70" depart="337.00" departLane="54o_0" departPos="7.10" departSpeed="0.00" departDelay="0.00" arrival="453.00" arrivalLane="53i_0" arrivalPos="10.00" arrivalSpeed="11.54" duration="116.00" routeLength="1013.10" waitSteps="14" timeLoss="44.20" rerouteNo="0" devices="tripinfo_down_70" vType="typeNS" speedFactor="1.00" vaporized=""/>
    <tripinfo id="left_47" depart="204.00" departLane="52o_0" departPos="5.10" departSpeed="0.00" departDelay="5.00" arrival="464.00" arrivalLane="51i_0" arrivalPos="10.00" arrivalSpeed="10.99" duration="260.00" routeLength="1015.10" waitSteps="118" timeLoss="184.01" rerouteNo="0" devices="tripinfo_left_47" vType="typeWE" speedFactor="1.00" vaporized=""/>
    <tripinfo id="right_63" depart="294.00" departLane="51o_0" departPos="5.10" departSpeed="0.00" departDelay="6.00" arrival="465.00" arrivalLane="52i_0" arrivalPos="10.00" arrivalSpeed="11.57" duration="171.00" routeLength="1015.10" waitSteps="50" timeLoss="94.94" rerouteNo="0" devices="tripinfo_right_63" vType="typeWE" speedFactor="1.00" vaporized=""/>
    <tripinfo id="down_74" depart="344.00" departLane="54o_0" departPos="7.10" departSpeed="0.00" departDelay="0.00" arrival="476.00" arrivalLane="53i_0" arrivalPos="10.00" arrivalSpeed="11.05" duration="132.00" routeLength="1013.10" waitSteps="26" timeLoss="60.58" rerouteNo="0" devices="tripinfo_down_74" vType="typeNS" speedFactor="1.00" vaporized=""/>
    <tripinfo id="down_76" depart="349.00" departLane="54o_0" departPos="7.10" departSpeed="0.00" departDelay="0.00" arrival="479.00" arrivalLane="53i_0" arrivalPos="10.00" arrivalSpeed="11.41" duration="130.00" routeLength="1013.10" waitSteps="20" timeLoss="58.01" rerouteNo="0" devices="tripinfo_down_76" vType="typeNS" speedFactor="1.00" vaporized=""/>
    <tripinfo id="down_79" depart="377.00" departLane="54o_0" departPos="7.10" departSpeed="0.00" departDelay="0.00" arrival="481.00" arrivalLane="53i_0" arrivalPos="10.00" arrivalSpeed="11.36" duration="104.00" routeLength="1013.10" waitSteps="2" timeLoss="32.34" rerouteNo="0" devices="tripinfo_down_79" vType="typeNS" speedFactor="1.00" vaporized=""/>
    <tripinfo id="left_49" depart="212.00" departLane="52o_0" departPos="5.10" departSpeed="0.00" departDelay="0.00" arrival="494.00" arrivalLane="51i_0" arrivalPos="10.00" arrivalSpeed="11.44" duration="282.00" routeLength="1015.10" waitSteps="133" timeLoss="205.68" rerouteNo="0" devices="tripinfo_left_49" vType="typeWE" speedFactor="1.00" vaporized=""/>
    <tripinfo id="right_64" depart="299.00" departLane="51o_0" departPos="5.10" departSpeed="0.00" departDelay="8.00" arrival="495.00" arrivalLane="52i_0" arrivalPos="10.00" arrivalSpeed="11.37" duration="196.00" routeLength="1015.10" waitSteps="70" timeLoss="119.45" rerouteNo="0" devices="tripinfo_right_64" vType="typeWE" speedFactor="1.00" vaporized=""/>
    <tripinfo id="left_51" depart="219.00" departLane="52o_0" departPos="5.10" departSpeed="0.00" departDelay="0.00" arrival="496.00" arrivalLane="51i_0" arrivalPos="10.00" arrivalSpeed="11.38" duration="277.00" routeLength="1015.10" waitSteps="123" timeLoss="200.95" rerouteNo="0" devices="tripinfo_left_51" vType="typeWE" speedFactor="1.00" vaporized=""/>
    <tripinfo id="down_80" depart="383.00" departLane="54o_0" departPos="7.10" departSpeed="0.00" departDelay="4.00" arrival="507.00" arrivalLane="53i_0" arrivalPos="10.00" arrivalSpeed="11.51" duration="124.00" routeLength="1013.10" waitSteps="16" timeLoss="52.70" rerouteNo="0" devices="tripinfo_down_80" vType="typeNS" speedFactor="1.00" vaporized=""/>
    <tripinfo id="right_65" depart="304.00" departLane="51o_0" departPos="5.10" departSpeed="0.00" departDelay="10.00" arrival="518.00" arrivalLane="52i_0" arrivalPos="10.00" arrivalSpeed="11.69" duration="214.00" routeLength="1015.10" waitSteps="83" timeLoss="137.64" rerouteNo="0" devices="tripinfo_right_65" vType="typeWE" speedFactor="1.00" vaporized=""/>
    <tripinfo id="left_53" depart="234.00" departLane="52o_0" departPos="5.10" departSpeed="0.00" departDelay="0.00" arrival="518.00" arrivalLane="51i_0" arrivalPos="10.00" arrivalSpeed="11.84" duration="284.00" routeLength="1015.10" waitSteps="121" timeLoss="208.21" rerouteNo="0" devices="tripinfo_left_53" vType="typeWE" speedFactor="1.00" vaporized=""/>
    <tripinfo id="right_68" depart="322.00" departLane="51o_0" departPos="5.10" departSpeed="0.00" departDelay="0.00" arrival="520.00" arrivalLane="52i_0" arrivalPos="10.00" arrivalSpeed="11.39" duration="198.00" routeLength="1015.10" waitSteps="70" timeLoss="122.15" rerouteNo="0" devices="tripinfo_right_68" vType="typeWE" speedFactor="1.00" vaporized=""/>
    <tripinfo id="left_54" depart="239.00" departLane="52o_0" departPos="5.10" departSpeed="0.00" departDelay="1.00" arrival="521.00" arrivalLane="51i_0" arrivalPos="10.00" arrivalSpeed="11.22" duration="282.00" routeLength="1015.10" waitSteps="117" timeLoss="205.31" rerouteNo="0" devices="tripinfo_left_54" vType="typeWE" speedFactor="1.00" vaporized=""/>
    <tripinfo id="left_58" depart="272.00" departLane="52o_0" departPos="5.10" departSpeed="0.00" departDelay="0.00" arrival="522.00" arrivalLane="51i_0" arrivalPos="10.00" arrivalSpeed="11.61" duration="250.00" routeLength="1015.10" waitSteps="105" timeLoss="174.13" rerouteNo="0" devices="tripinfo_left_58" vType="typeWE" speedFactor="1.00" vaporized=""/>
    <tripinfo id="right_72" depart="342.00" departLane="51o_0" departPos="5.10" departSpeed="0.00" departDelay="0.00" arrival="523.00" arrivalLane="52i_0" arrivalPos="10.00" arrivalSpeed="11.52" duration="181.00" routeLength="1015.10" waitSteps="51" timeLoss="104.76" rerouteNo="0" devices="tripinfo_right_72" vType="typeWE" speedFactor="1.00" vaporized=""/>
    <tripinfo id="down_86" depart="394.00" departLane="54o_0" departPos="7.10" departSpeed="0.00" departDelay="0.00" arrival="537.00" arrivalLane="53i_0" arrivalPos="10.00" arrivalSpeed="11.34" duration="143.00" routeLength="1013.10" waitSteps="35" timeLoss="71.01" rerouteNo="0" devices="tripinfo_down_86" vType="typeNS" speedFactor="1.00" vaporized=""/>
    <tripinfo id="down_88" depart="400.00" departLane="54o_0" departPos="7.10" departSpeed="0.00" departDelay="3.00" arrival="539.00" arrivalLane="53i_0" arrivalPos="10.00" arrivalSpeed="11.32" duration="139.00" routeLength="1013.10" waitSteps="31" timeLoss="66.91" rerouteNo="0" devices="tripinfo_down_88" vType="typeNS" speedFactor="1.00" vaporized=""/>
    <tripinfo id="down_94" depart="440.00" departLane="54o_0" departPos="7.10" departSpeed="0.00" departDelay="0.00" arrival="542.00" arrivalLane="53i_0" arrivalPos="10.00" arrivalSpeed="11.50" duration="102.00" routeLength="1013.10" waitSteps="0" timeLoss="29.89" rerouteNo="0" devices="tripinfo_down_94" vType="typeNS" speedFactor="1.00" vaporized=""/>
    <tripinfo id="down_95" depart="457.00" departLane="54o_0" departPos="7.10" departSpeed="0.00" departDelay="0.00" arrival="546.00" arrivalLane="53i_0" arrivalPos="10.00" arrivalSpeed="11.16" duration="89.00" routeLength="1013.10" waitSteps="0" timeLoss="17.59" rerouteNo="0" devices="tripinfo_down_95" vType="typeNS" speedFactor="1.00" vaporized=""/>
    <tripinfo id="right_77" depart="354.00" departLane="51o_0" departPos="5.10" departSpeed="0.00" departDelay="0.00" arrival="560.00" arrivalLane="52i_0" arrivalPos="10.00" arrivalSpeed="11.85" duration="206.00" routeLength="1015.10" waitSteps="76" timeLoss="129.99" rerouteNo="0" devices="tripinfo_right_77" vType="typeWE" speedFactor="1.00" vaporized=""/>
    <tripinfo id="left_59" depart="277.00" departLane="52o_0" departPos="5.10" departSpeed="0.00" departDelay="2.00" arrival="560.00" arrivalLane="51i_0" arrivalPos="10.00" arrivalSpeed="11.32" duration="283.00" routeLength="1015.10" waitSteps="131" timeLoss="206.54" rerouteNo="0" devices="tripinfo_left_59" vType="typeWE" speedFactor="1.00" vaporized=""/>