<?xml version="1.0" encoding="UTF-8"?>

<!-- generated on Mon Feb 26 02:49:43 2018 by SUMO Version 0.32.0
<?xml version="1.0" encoding="UTF-8"?>

<configuration xmlns:xsi="http://www.w3.org/2001/XMLSchema-instance" xsi:noNamespaceSchemaLocation="http://sumo.dlr.de/xsd/sumoConfiguration.xsd">

    <input>
        <net-file value="data/cross.net.xml"/>
        <route-files value="data/cross.rou.xml"/>
        <additional-files value="data/cross.det.xml,data/cross.det2.xml"/>
    </input>

    <output>
        <tripinfo-output value="qlepisode1_tripinfo.xml"/>
    </output>

    <time>
        <begin value="0"/>
    </time>

    <report>
        <verbose value="true"/>
        <error-log value="errors"/>
        <no-step-log value="true"/>
    </report>

    <traci_server>
        <remote-port value="54715"/>
    </traci_server>

</configuration>
-->

<tripinfos xmlns:xsi="http://www.w3.org/2001/XMLSchema-instance" xsi:noNamespaceSchemaLocation="http://sumo.dlr.de/xsd/tripinfo_file.xsd">
    <tripinfo id="down_6" depart="13.00" departLane="54o_0" departPos="7.10" departSpeed="0.00" departDelay="0.00" arrival="103.00" arrivalLane="53i_0" arrivalPos="10.00" arrivalSpeed="11.51" duration="90.00" routeLength="1013.10" waitSteps="0" timeLoss="18.33" rerouteNo="0" devices="tripinfo_down_6" vType="typeNS" speedFactor="1.00" vaporized=""/>
    <tripinfo id="left_0" depart="0.00" departLane="52o_0" departPos="5.10" departSpeed="0.00" departDelay="0.00" arrival="123.00" arrivalLane="51i_0" arrivalPos="10.00" arrivalSpeed="11.32" duration="123.00" routeLength="1015.10" waitSteps="20" timeLoss="46.69" rerouteNo="0" devices="tripinfo_left_0" vType="typeWE" speedFactor="1.00" vaporized=""/>
    <tripinfo id="right_2" depart="3.00" departLane="51o_0" departPos="5.10" departSpeed="0.00" departDelay="0.00" arrival="123.00" arrivalLane="52i_0" arrivalPos="10.00" arrivalSpeed="11.37" duration="120.00" routeLength="1015.10" waitSteps="17" timeLoss="43.92" rerouteNo="0" devices="tripinfo_right_2" vType="typeWE" speedFactor="1.00" vaporized=""/>
    <tripinfo id="left_1" depart="5.00" departLane="52o_0" departPos="5.10" departSpeed="0.00" departDelay="3.00" arrival="125.00" arrivalLane="51i_0" arrivalPos="10.00" arrivalSpeed="11.41" duration="120.00" routeLength="1015.10" waitSteps="16" timeLoss="43.74" rerouteNo="0" devices="tripinfo_left_1" vType="typeWE" speedFactor="1.00" vaporized=""/>
    <tripinfo id="down_8" depart="29.00" departLane="54o_0" departPos="7.10" departSpeed="0.00" departDelay="0.00" arrival="134.00" arrivalLane="53i_0" arrivalPos="10.00" arrivalSpeed="11.68" duration="105.00" routeLength="1013.10" waitSteps="4" timeLoss="33.84" rerouteNo="0" devices="tripinfo_down_8" vType="typeNS" speedFactor="1.00" vaporized=""/>
    <tripinfo id="left_4" depart="10.00" departLane="52o_0" departPos="5.10" departSpeed="0.00" departDelay="4.00" arrival="152.00" arrivalLane="51i_0" arrivalPos="10.00" arrivalSpeed="11.46" duration="142.00" routeLength="1015.10" waitSteps="34" timeLoss="66.13" rerouteNo="0" devices="tripinfo_left_4" vType="typeWE" speedFactor="1.00" vaporized=""/>
    <tripinfo id="right_3" depart="8.00" departLane="51o_0" departPos="5.10" departSpeed="0.00" departDelay="4.00" arrival="153.00" arrivalLane="52i_0" arrivalPos="10.00" arrivalSpeed="11.50" duration="145.00" routeLength="1015.10" waitSteps="37" timeLoss="68.65" rerouteNo="0" devices="tripinfo_right_3" vType="typeWE" speedFactor="1.00" vaporized=""/>
    <tripinfo id="left_7" depart="22.00" departLane="52o_0" departPos="5.10" departSpeed="0.00" departDelay="0.00" arrival="154.00" arrivalLane="51i_0" arrivalPos="10.00" arrivalSpeed="11.33" duration="132.00" routeLength="1015.10" waitSteps="22" timeLoss="55.87" rerouteNo="0" devices="tripinfo_left_7" vType="typeWE" speedFactor="1.00" vaporized=""/>
    <tripinfo id="right_5" depart="13.00" departLane="51o_0" departPos="5.10" departSpeed="0.00" departDelay="4.00" arrival="155.00" arrivalLane="52i_0" arrivalPos="10.00" arrivalSpeed="11.35" duration="142.00" routeLength="1015.10" waitSteps="33" timeLoss="65.67" rerouteNo="0" devices="tripinfo_right_5" vType="typeWE" speedFactor="1.00" vaporized=""/>
    <tripinfo id="left_9" depart="31.00" departLane="52o_0" departPos="5.10" departSpeed="0.00" departDelay="0.00" arrival="156.00" arrivalLane="51i_0" arrivalPos="10.00" arrivalSpeed="11.20" duration="125.00" routeLength="1015.10" waitSteps="18" timeLoss="48.74" rerouteNo="0" devices="tripinfo_left_9" vType="typeWE" speedFactor="1.00" vaporized=""/>
    <tripinfo id="right_12" depart="42.00" departLane="51o_0" departPos="5.10" departSpeed="0.00" departDelay="0.00" arrival="157.00" arrivalLane="52i_0" arrivalPos="10.00" arrivalSpeed="11.65" duration="115.00" routeLength="1015.10" waitSteps="9" timeLoss="38.79" rerouteNo="0" devices="tripinfo_right_12" vType="typeWE" speedFactor="1.00" vaporized=""/>
    <tripinfo id="left_10" depart="36.00" departLane="52o_0" departPos="5.10" departSpeed="0.00" departDelay="3.00" arrival="188.00" arrivalLane="51i_0" arrivalPos="10.00" arrivalSpeed="11.07" duration="152.00" routeLength="1015.10" waitSteps="39" timeLoss="76.07" rerouteNo="0" devices="tripinfo_left_10" vType="typeWE" speedFactor="1.00" vaporized=""/>
    <tripinfo id="right_15" depart="55.00" departLane="51o_0" departPos="5.10" departSpeed="0.00" departDelay="0.00" arrival="188.00" arrivalLane="52i_0" arrivalPos="10.00" arrivalSpeed="11.64" duration="133.00" routeLength="1015.10" waitSteps="23" timeLoss="57.21" rerouteNo="0" devices="tripinfo_right_15" vType="typeWE" speedFactor="1.00" vaporized=""/>
    <tripinfo id="left_11" depart="41.00" departLane="52o_0" departPos="5.10" departSpeed="0.00" departDelay="0.00" arrival="190.00" arrivalLane="51i_0" arrivalPos="10.00" arrivalSpeed="11.23" duration="149.00" routeLength="1015.10" waitSteps="35" timeLoss="73.13" rerouteNo="0" devices="tripinfo_left_11" vType="typeWE" speedFactor="1.00" vaporized=""/>
    <tripinfo id="down_20" depart="89.00" departLane="54o_0" departPos="7.10" departSpeed="0.00" departDelay="0.00" arrival="200.00" arrivalLane="53i_0" arrivalPos="10.00" arrivalSpeed="11.68" duration="111.00" routeLength="1013.10" waitSteps="12" timeLoss="39.67" rerouteNo="0" devices="tripinfo_down_20" vType="typeNS" speedFactor="1.00" vaporized=""/>
    <tripinfo id="down_21" depart="96.00" departLane="54o_0" departPos="7.10" departSpeed="0.00" departDelay="0.00" arrival="203.00" arrivalLane="53i_0" arrivalPos="10.00" arrivalSpeed="11.37" duration="107.00" routeLength="1013.10" waitSteps="7" timeLoss="35.37" rerouteNo="0" devices="tripinfo_down_21" vType="typeNS" speedFactor="1.00" vaporized=""/>
    <tripinfo id="down_26" depart="122.00" departLane="54o_0" departPos="7.10" departSpeed="0.00" departDelay="0.00" arrival="212.00" arrivalLane="53i_0" arrivalPos="10.00" arrivalSpeed="11.77" duration="90.00" routeLength="1013.10" waitSteps="0" timeLoss="17.73" rerouteNo="0" devices="tripinfo_down_26" vType="typeNS" speedFactor="1.00" vaporized=""/>
    <tripinfo id="left_13" depart="46.00" departLane="52o_0" departPos="5.10" departSpeed="0.00" departDelay="1.00" arrival="225.00" arrivalLane="51i_0" arrivalPos="10.00" arrivalSpeed="11.23" duration="179.00" routeLength="1015.10" waitSteps="60" timeLoss="102.45" rerouteNo="0" devices="tripinfo_left_13" vType="typeWE" speedFactor="1.00" vaporized=""/>
    <tripinfo id="right_16" depart="61.00" departLane="51o_0" departPos="5.10" departSpeed="0.00" departDelay="0.00" arrival="225.00" arrivalLane="52i_0" arrivalPos="10.00" arrivalSpeed="11.38" duration="164.00" routeLength="1015.10" waitSteps="53" timeLoss="87.51" rerouteNo="0" devices="tripinfo_right_16" vType="typeWE" speedFactor="1.00" vaporized=""/>
    <tripinfo id="left_14" depart="53.00" departLane="52o_0" departPos="5.10" departSpeed="0.00" departDelay="0.00" arrival="226.00" arrivalLane="51i_0" arrivalPos="10.00" arrivalSpeed="10.80" duration="173.00" routeLength="1015.10" waitSteps="54" timeLoss="97.03" rerouteNo="0" devices="tripinfo_left_14" vType="typeWE" speedFactor="1.00" vaporized=""/>
    <tripinfo id="right_17" depart="69.00" departLane="51o_0" departPos="5.10" departSpeed="0.00" departDelay="0.00" arrival="227.00" arrivalLane="52i_0" arrivalPos="10.00" arrivalSpeed="11.51" duration="158.00" routeLength="1015.10" waitSteps="49" timeLoss="81.38" rerouteNo="0" devices="tripinfo_right_17" vType="typeWE" speedFactor="1.00" vaporized=""/>
    <tripinfo id="right_18" depart="84.00" departLane="51o_0" departPos="5.10" departSpeed="0.00" departDelay="0.00" arrival="228.00" arrivalLane="52i_0" arrivalPos="10.00" arrivalSpeed="11.19" duration="144.00" routeLength="1015.10" waitSteps="35" timeLoss="68.13" rerouteNo="0" devices="tripinfo_right_18" vType="typeWE" speedFactor="1.00" vaporized=""/>
    <tripinfo id="left_19" depart="85.00" departLane="52o_0" departPos="5.10" departSpeed="0.00" departDelay="0.00" arrival="229.00" arrivalLane="51i_0" arrivalPos="10.00" arrivalSpeed="11.58" duration="144.00" routeLength="1015.10" waitSteps="33" timeLoss="67.91" rerouteNo="0" devices="tripinfo_left_19" vType="typeWE" speedFactor="1.00" vaporized=""/>
    <tripinfo id="right_22" depart="99.00" departLane="51o_0" departPos="5.10" departSpeed="0.00" departDelay="0.00" arrival="230.00" arrivalLane="52i_0" arrivalPos="10.00" arrivalSpeed="11.40" duration="131.00" routeLength="1015.10" waitSteps="28" timeLoss="55.02" rerouteNo="0" devices="tripinfo_right_22" vType="typeWE" speedFactor="1.00" vaporized=""/>
    <tripinfo id="left_23" depart="99.00" departLane="52o_0" departPos="5.10" departSpeed="0.00" departDelay="0.00" arrival="231.00" arrivalLane="51i_0" arrivalPos="10.00" arrivalSpeed="11.42" duration="132.00" routeLength="1015.10" waitSteps="24" timeLoss="55.85" rerouteNo="0" devices="tripinfo_left_23" vType="typeWE" speedFactor="1.00" vaporized=""/>
    <tripinfo id="right_24" depart="108.00" departLane="51o_0" departPos="5.10" departSpeed="0.00" departDelay="0.00" arrival="232.00" arrivalLane="52i_0" arrivalPos="10.00" arrivalSpeed="11.53" duration="124.00" routeLength="1015.10" waitSteps="20" timeLoss="47.76" rerouteNo="0" devices="tripinfo_right_24" vType="typeWE" speedFactor="1.00" vaporized=""/>
    <tripinfo id="left_28" depart="131.00" departLane="52o_0" departPos="5.10" departSpeed="0.00" departDelay="0.00" arrival="233.00" arrivalLane="51i_0" arrivalPos="10.00" arrivalSpeed="11.52" duration="102.00" routeLength="1015.10" waitSteps="0" timeLoss="25.56" rerouteNo="0" devices="tripinfo_left_28" vType="typeWE" speedFactor="1.00" vaporized=""/>
    <tripinfo id="left_29" depart="136.00" departLane="52o_0" departPos="5.10" departSpeed="0.00" departDelay="1.00" arrival="234.00" arrivalLane="51i_0" arrivalPos="10.00" arrivalSpeed="10.99" duration="98.00" routeLength="1015.10" waitSteps="0" timeLoss="21.99" rerouteNo="0" devices="tripinfo_left_29" vType="typeWE" speedFactor="1.00" vaporized=""/>
    <tripinfo id="right_25" depart="114.00" departLane="51o_0" departPos="5.10" departSpeed="0.00" departDelay="0.00" arrival="234.00" arrivalLane="52i_0" arrivalPos="10.00" arrivalSpeed="11.62" duration="120.00" routeLength="1015.10" waitSteps="16" timeLoss="43.69" rerouteNo="0" devices="tripinfo_right_25" vType="typeWE" speedFactor="1.00" vaporized=""/>
    <tripinfo id="left_30" depart="141.00" departLane="52o_0" departPos="5.10" departSpeed="0.00" departDelay="3.00" arrival="260.00" arrivalLane="51i_0" arrivalPos="10.00" arrivalSpeed="10.96" duration="119.00" routeLength="1015.10" waitSteps="16" timeLoss="43.02" rerouteNo="0" devices="tripinfo_left_30" vType="typeWE" speedFactor="1.00" vaporized=""/>
    <tripinfo id="right_27" depart="125.00" departLane="51o_0" departPos="5.10" departSpeed="0.00" departDelay="0.00" arrival="260.00" arrivalLane="52i_0" arrivalPos="10.00" arrivalSpeed="11.10" duration="135.00" routeLength="1015.10" waitSteps="22" timeLoss="59.01" rerouteNo="0" devices="tripinfo_right_27" vType="typeWE" speedFactor="1.00" vaporized=""/>
    <tripinfo id="right_32" depart="145.00" departLane="51o_0" departPos="5.10" departSpeed="0.00" departDelay="0.00" arrival="262.00" arrivalLane="52i_0" arrivalPos="10.00" arrivalSpeed="11.33" duration="117.00" routeLength="1015.10" waitSteps="14" timeLoss="41.20" rerouteNo="0" devices="tripinfo_right_32" vType="typeWE" speedFactor="1.00" vaporized=""/>
    <tripinfo id="left_31" depart="146.00" departLane="52o_0" departPos="5.10" departSpeed="0.00" departDelay="4.00" arrival="263.00" arrivalLane="51i_0" arrivalPos="10.00" arrivalSpeed="11.72" duration="117.00" routeLength="1015.10" waitSteps="14" timeLoss="40.54" rerouteNo="0" devices="tripinfo_left_31" vType="typeWE" speedFactor="1.00" vaporized=""/>
    <tripinfo id="right_37" depart="167.00" departLane="51o_0" departPos="5.10" departSpeed="0.00" departDelay="0.00" arrival="264.00" arrivalLane="52i_0" arrivalPos="10.00" arrivalSpeed="11.56" duration="97.00" routeLength="1015.10" waitSteps="0" timeLoss="21.10" rerouteNo="0" devices="tripinfo_right_37" vType="typeWE" speedFactor="1.00" vaporized=""/>
    <tripinfo id="left_33" depart="157.00" departLane="52o_0" departPos="5.10" departSpeed="0.00" departDelay="4.00" arrival="265.00" arrivalLane="51i_0" arrivalPos="10.00" arrivalSpeed="11.48" duration="108.00" routeLength="1015.10" waitSteps="3" timeLoss="31.71" rerouteNo="0" devices="tripinfo_left_33" vType="typeWE" speedFactor="1.00" vaporized=""/>
    <tripinfo id="right_38" depart="172.00" departLane="51o_0" departPos="5.10" departSpeed="0.00" departDelay="4.00" arrival="266.00" arrivalLane="52i_0" arrivalPos="10.00" arrivalSpeed="11.60" duration="94.00" routeLength="1015.10" waitSteps="0" timeLoss="17.87" rerouteNo="0" devices="tripinfo_right_38" vType="typeWE" speedFactor="1.00" vaporized=""/>
    <tripinfo id="left_34" depart="162.00" departLane="52o_0" departPos="5.10" departSpeed="0.00" departDelay="6.00" arrival="267.00" arrivalLane="51i_0" arrivalPos="10.00" arrivalSpeed="11.51" duration="105.00" routeLength="1015.10" waitSteps="1" timeLoss="28.67" rerouteNo="0" devices="tripinfo_left_34" vType="typeWE" speedFactor="1.00" vaporized=""/>
    <tripinfo id="left_35" depart="166.00" departLane="52o_0" departPos="5.10" departSpeed="0.00" departDelay="6.00" arrival="269.00" arrivalLane="51i_0" arrivalPos="10.00" arrivalSpeed="11.53" duration="103.00" routeLength="1015.10" waitSteps="1" timeLoss="26.53" rerouteNo="0" devices="tripinfo_left_35" vType="typeWE" speedFactor="1.00" vaporized=""/>
    <tripinfo id="right_42" depart="178.00" departLane="51o_0" departPos="5.10" departSpeed="0.00" departDelay="2.00" arrival="269.00" arrivalLane="52i_0" arrivalPos="10.00" arrivalSpeed="11.59" duration="91.00" routeLength="1015.10" waitSteps="0" timeLoss="14.22" rerouteNo="0" devices="tripinfo_right_42" vType="typeWE" speedFactor="1.00" vaporized=""/>
    <tripinfo id="left_36" depart="172.00" departLane="52o_0" departPos="5.10" departSpeed="0.00" departDelay="8.00" arrival="270.00" arrivalLane="51i_0" arrivalPos="10.00" arrivalSpeed="11.01" duration="98.00" routeLength="1015.10" waitSteps="0" timeLoss="21.96" rerouteNo="0" devices="tripinfo_left_36" vType="typeWE" speedFactor="1.00" vaporized=""/>
    <tripinfo id="down_41" depart="172.00" departLane="54o_0" departPos="7.10" departSpeed="0.00" departDelay="0.00" arrival="284.00" arrivalLane="53i_0" arrivalPos="10.00" arrivalSpeed="11.47" duration="112.00" routeLength="1013.10" waitSteps="12" timeLoss="40.50" rerouteNo="0" devices="tripinfo_down_41" vType="typeNS" speedFactor="1.00" vaporized=""/>
    <tripinfo id="left_39" depart="177.00" departLane="52o_0" departPos="5.10" departSpeed="0.00" departDelay="8.00" arrival="296.00" arrivalLane="51i_0" arrivalPos="10.00" arrivalSpeed="11.35" duration="119.00" routeLength="1015.10" waitSteps="15" timeLoss="42.56" rerouteNo="0" devices="tripinfo_left_39" vType="typeWE" speedFactor="1.00" vaporized=""/>
    <tripinfo id="right_43" depart="183.00" departLane="51o_0" departPos="5.10" departSpeed="0.00" departDelay="2.00" arrival="297.00" arrivalLane="52i_0" arrivalPos="10.00" arrivalSpeed="11.50" duration="114.00" routeLength="1015.10" waitSteps="10" timeLoss="37.85" rerouteNo="0" devices="tripinfo_right_43" vType="typeWE" speedFactor="1.00" vaporized=""/>
    <tripinfo id="right_44" depart="188.00" departLane="51o_0" departPos="5.10" departSpeed="0.00" departDelay="5.00" arrival="320.00" arrivalLane="52i_0" arrivalPos="10.00" arrivalSpeed="11.68" duration="132.00" routeLength="1015.10" waitSteps="25" timeLoss="56.10" rerouteNo="0" devices="tripinfo_right_44" vType="typeWE" speedFactor="1.00" vaporized=""/>
    <tripinfo id="left_40" depart="182.00" departLane="52o_0" departPos="5.10" departSpeed="0.00" departDelay="10.00" arrival="321.00" arrivalLane="51i_0" arrivalPos="10.00" arrivalSpeed="11.39" duration="139.00" routeLength="1015.10" waitSteps="31" timeLoss="63.17" rerouteNo="0" devices="tripinfo_left_40" vType="typeWE" speedFactor="1.00" vaporized=""/>
    <tripinfo id="right_48" depart="200.00" departLane="51o_0" departPos="5.10" departSpeed="0.00" departDelay="0.00" arrival="322.00" arrivalLane="52i_0" arrivalPos="10.00" arrivalSpeed="11.47" duration="122.00" routeLength="1015.10" waitSteps="16" timeLoss="46.06" rerouteNo="0" devices="tripinfo_right_48" vType="typeWE" speedFactor="1.00" vaporized=""/>
    <tripinfo id="left_45" depart="194.00" departLane="52o_0" departPos="5.10" departSpeed="0.00" departDelay="0.00" arrival="323.00" arrivalLane="51i_0" arrivalPos="10.00" arrivalSpeed="11.48" duration="129.00" routeLength="1015.10" waitSteps="19" timeLoss="53.12" rerouteNo="0" devices="tripinfo_left_45" vType="typeWE" speedFactor="1.00" vaporized=""/>
    <tripinfo id="left_46" depart="199.00" departLane="52o_0" departPos="5.10" departSpeed="0.00" departDelay="3.00" arrival="325.00" arrivalLane="51i_0" arrivalPos="10.00" arrivalSpeed="11.41" duration="126.00" routeLength="1015.10" waitSteps="16" timeLoss="49.90" rerouteNo="0" devices="tripinfo_left_46" vType="typeWE" speedFactor="1.00" vaporized=""/>
    <tripinfo id="right_50" depart="217.00" departLane="51o_0" departPos="5.10" departSpeed="0.00" departDelay="0.00" arrival="325.00" arrivalLane="52i_0" arrivalPos="10.00" arrivalSpeed="11.43" duration="108.00" routeLength="1015.10" waitSteps="4" timeLoss="31.39" rerouteNo="0" devices="tripinfo_right_50" vType="typeWE" speedFactor="1.00" vaporized=""/>
    <tripinfo id="right_52" depart="234.00" departLane="51o_0" departPos="5.10" departSpeed="0.00" departDelay="6.00" arrival="326.00" arrivalLane="52i_0" arrivalPos="10.00" arrivalSpeed="11.61" duration="92.00" routeLength="1015.10" waitSteps="0" timeLoss="16.04" rerouteNo="0" devices="tripinfo_right_52" vType="typeWE" speedFactor="1.00" vaporized=""/>
    <tripinfo id="left_47" depart="204.00" departLane="52o_0" departPos="5.10" departSpeed="0.00" departDelay="5.00" arrival="327.00" arrivalLane="51i_0" arrivalPos="10.00" arrivalSpeed="11.70" duration="123.00" routeLength="1015.10" waitSteps="17" timeLoss="46.96" rerouteNo="0" devices="tripinfo_left_47" vType="typeWE" speedFactor="1.00" vaporized=""/>
    <tripinfo id="left_49" depart="212.00" departLane="52o_0" departPos="5.10" departSpeed="0.00" departDelay="0.00" arrival="329.00" arrivalLane="51i_0" arrivalPos="10.00" arrivalSpeed="11.29" duration="117.00" routeLength="1015.10" waitSteps="12" timeLoss="40.73" rerouteNo="0" devices="tripinfo_left_49" vType="typeWE" speedFactor="1.00" vaporized=""/>
    <tripinfo id="left_51" depart="219.00" departLane="52o_0" departPos="5.10" departSpeed="0.00" departDelay="0.00" arrival="331.00" arrivalLane="51i_0" arrivalPos="10.00" arrivalSpeed="11.37" duration="112.00" routeLength="1015.10" waitSteps="9" timeLoss="35.42" rerouteNo="0" devices="tripinfo_left_51" vType="typeWE" speedFactor="1.00" vaporized=""/>
    <tripinfo id="down_55" depart="238.00" departLane="54o_0" departPos="7.10" departSpeed="0.00" departDelay="0.00" arrival="345.00" arrivalLane="53i_0" arrivalPos="10.00" arrivalSpeed="11.29" duration="107.00" routeLength="1013.10" waitSteps="7" timeLoss="35.14" rerouteNo="0" devices="tripinfo_down_55" vType="typeNS" speedFactor="1.00" vaporized=""/>
    <tripinfo id="down_57" depart="243.00" departLane="54o_0" departPos="7.10" departSpeed="0.00" departDelay="1.00" arrival="347.00" arrivalLane="53i_0" arrivalPos="10.00" arrivalSpeed="11.42" duration="104.00" routeLength="1013.10" waitSteps="3" timeLoss="32.41" rerouteNo="0" devices="tripinfo_down_57" vType="typeNS" speedFactor="1.00" vaporized=""/>
    <tripinfo id="down_60" depart="283.00" departLane="54o_0" departPos="7.10" departSpeed="0.00" departDelay="0.00" arrival="372.00" arrivalLane="53i_0" arrivalPos="10.00" arrivalSpeed="11.64" duration="89.00" routeLength="1013.10" waitSteps="0" timeLoss="17.43" rerouteNo="0" devices="tripinfo_down_60" vType="typeNS" speedFactor="1.00" vaporized=""/>
    <tripinfo id="left_53" depart="234.00" departLane="52o_0" departPos="5.10" departSpeed="0.00" departDelay="0.00" arrival="392.00" arrivalLane="51i_0" arrivalPos="10.00" arrivalSpeed="11.71" duration="158.00" routeLength="1015.10" waitSteps="52" timeLoss="81.57" rerouteNo="0" devices="tripinfo_left_53" vType="typeWE" speedFactor="1.00" vaporized=""/>
    <tripinfo id="right_56" depart="240.00" departLane="51o_0" departPos="5.10" departSpeed="0.00" departDelay="0.00" arrival="392.00" arrivalLane="52i_0" arrivalPos="10.00" arrivalSpeed="11.25" duration="152.00" routeLength="1015.10" waitSteps="50" timeLoss="76.01" rerouteNo="0" devices="tripinfo_right_56" vType="typeWE" speedFactor="1.00" vaporized=""/>
    <tripinfo id="right_61" depart="284.00" departLane="51o_0" departPos="5.10" departSpeed="0.00" departDelay="0.00" arrival="394.00" arrivalLane="52i_0" arrivalPos="10.00" arrivalSpeed="11.82" duration="110.00" routeLength="1015.10" waitSteps="9" timeLoss="34.17" rerouteNo="0" devices="tripinfo_right_61" vType="typeWE" speedFactor="1.00" vaporized=""/>
    <tripinfo id="down_66" depart="302.00" departLane="54o_0" departPos="7.10" departSpeed="0.00" departDelay="0.00" arrival="405.00" arrivalLane="53i_0" arrivalPos="10.00" arrivalSpeed="11.51" duration="103.00" routeLength="1013.10" waitSteps="3" timeLoss="31.03" rerouteNo="0" devices="tripinfo_down_66" vType="typeNS" speedFactor="1.00" vaporized=""/>
    <tripinfo id="down_67" depart="318.00" departLane="54o_0" departPos="7.10" departSpeed="0.00" departDelay="0.00" arrival="407.00" arrivalLane="53i_0" arrivalPos="10.00" arrivalSpeed="11.80" duration="89.00" routeLength="1013.10" waitSteps="0" timeLoss="17.30" rerouteNo="0" devices="tripinfo_down_67" vType="typeNS" speedFactor="1.00" vaporized=""/>
    <tripinfo id="down_69" depart="331.00" departLane="54o_0" departPos="7.10" departSpeed="0.00" departDelay="0.00" arrival="420.00" arrivalLane="53i_0" arrivalPos="10.00" arrivalSpeed="11.73" duration="89.00" routeLength="1013.10" waitSteps="0" timeLoss="17.50" rerouteNo="0" devices="tripinfo_down_69" vType="typeNS" speedFactor="1.00" vaporized=""/>
    <tripinfo id="left_54" depart="239.00" departLane="52o_0" departPos="5.10" departSpeed="0.00" departDelay="1.00" arrival="434.00" arrivalLane="51i_0" arrivalPos="10.00" arrivalSpeed="11.49" duration="195.00" routeLength="1015.10" waitSteps="87" timeLoss="119.12" rerouteNo="0" devices="tripinfo_left_54" vType="typeWE" speedFactor="1.00" vaporized=""/>
    <tripinfo id="left_58" depart="272.00" departLane="52o_0" departPos="5.10" departSpeed="0.00" departDelay="0.00" arrival="436.00" arrivalLane="51i_0" arrivalPos="10.00" arrivalSpeed="11.63" duration="164.00" routeLength="1015.10" waitSteps="54" timeLoss="87.91" rerouteNo="0" devices="tripinfo_left_58" vType="typeWE" speedFactor="1.00" vaporized=""/>
    <tripinfo id="right_62" depart="289.00" departLane="51o_0" departPos="5.10" departSpeed="0.00" departDelay="3.00" arrival="436.00" arrivalLane="52i_0" arrivalPos="10.00" arrivalSpeed="11.28" duration="147.00" routeLength="1015.10" waitSteps="37" timeLoss="70.45" rerouteNo="0" devices="tripinfo_right_62" vType="typeWE" speedFactor="1.00" vaporized=""/>
    <tripinfo id="down_70" depart="337.00" departLane="54o_0" departPos="7.10" departSpeed="0.00" departDelay="0.00" arrival="447.00" arrivalLane="53i_0" arrivalPos="10.00" arrivalSpeed="11.61" duration="110.00" routeLength="1013.10" waitSteps="8" timeLoss="38.41" rerouteNo="0" devices="tripinfo_down_70" vType="typeNS" speedFactor="1.00" vaporized=""/>
    <tripinfo id="left_59" depart="277.00" departLane="52o_0" departPos="5.10" departSpeed="0.00" departDelay="2.00" arrival="459.00" arrivalLane="51i_0" arrivalPos="10.00" arrivalSpeed="11.70" duration="182.00" routeLength="1015.10" waitSteps="66" timeLoss="105.56" rerouteNo="0" devices="tripinfo_left_59" vType="typeWE" speedFactor="1.00" vaporized=""/>
    <tripinfo id="right_63" depart="296.00" departLane="51o_0" departPos="5.10" departSpeed="0.00" departDelay="8.00" arrival="459.00" arrivalLane="52i_0" arrivalPos="10.00" arrivalSpeed="11.47" duration="163.00" routeLength="1015.10" waitSteps="50" timeLoss="87.18" rerouteNo="0" devices="tripinfo_right_63" vType="typeWE" speedFactor="1.00" vaporized=""/>
    <tripinfo id="down_74" depart="344.00" departLane="54o_0" departPos="7.10" departSpeed="0.00" departDelay="0.00" arrival="471.00" arrivalLane="53i_0" arrivalPos="10.00" arrivalSpeed="11.59" duration="127.00" routeLength="1013.10" waitSteps="20" timeLoss="55.47" rerouteNo="0" devices="tripinfo_down_74" vType="typeNS" speedFactor="1.00" vaporized=""/>
    <tripinfo id="down_76" depart="350.00" departLane="54o_0" departPos="7.10" departSpeed="0.00" departDelay="1.00" arrival="473.00" arrivalLane="53i_0" arrivalPos="10.00" arrivalSpeed="11.43" duration="123.00" routeLength="1013.10" waitSteps="15" timeLoss="51.46" rerouteNo="0" devices="tripinfo_down_76" vType="typeNS" speedFactor="1.00" vaporized=""/>
    <tripinfo id="down_79" depart="377.00" departLane="54o_0" departPos="7.10" departSpeed="0.00" departDelay="0.00" arrival="476.00" arrivalLane="53i_0" arrivalPos="10.00" arrivalSpeed="11.48" duration="99.00" routeLength="1013.10" waitSteps="0" timeLoss="27.06" rerouteNo="0" devices="tripinfo_down_79" vType="typeNS" speedFactor="1.00" vaporized=""/>
    <tripinfo id="left_71" depart="339.00" departLane="52o_0" departPos="5.10" departSpeed="0.00" departDelay="0.00" arrival="488.00" arrivalLane="51i_0" arrivalPos="10.00" arrivalSpeed="11.23" duration="149.00" routeLength="1015.10" waitSteps="37" timeLoss="73.28" rerouteNo="0" devices="tripinfo_left_71" vType="typeWE" speedFactor="1.00" vaporized=""/>
    <tripinfo id="right_64" depart="301.00" departLane="51o_0" departPos="5.10" departSpeed="0.00" departDelay="10.00" arrival="488.00" arrivalLane="52i_0" arrivalPos="10.00" arrivalSpeed="11.41" duration="187.00" routeLength="1015.10" waitSteps="69" timeLoss="110.79" rerouteNo="0" devices="tripinfo_right_64" vType="typeWE" speedFactor="1.00" vaporized=""/>
    <tripinfo id="right_65" depart="306.00" departLane="51o_0" departPos="5.10" departSpeed="0.00" departDelay="12.00" arrival="490.00" arrivalLane="52i_0" arrivalPos="10.00" arrivalSpeed="11.37" duration="184.00" routeLength="1015.10" waitSteps="68" timeLoss="108.04" rerouteNo="0" devices="tripinfo_right_65" vType="typeWE" speedFactor="1.00" vaporized=""/>
    <tripinfo id="left_73" depart="344.00" departLane="52o_0" departPos="5.10" departSpeed="0.00" departDelay="0.00" arrival="491.00" arrivalLane="51i_0" arrivalPos="10.00" arrivalSpeed="11.54" duration="147.00" routeLength="1015.10" waitSteps="34" timeLoss="70.42" rerouteNo="0" devices="tripinfo_left_73" vType="typeWE" speedFactor="1.00" vaporized=""/>
    <tripinfo id="right_68" depart="323.00" departLane="51o_0" departPos="5.10" departSpeed="0.00" departDelay="1.00" arrival="492.00" arrivalLane="52i_0" arrivalPos="10.00" arrivalSpeed="11.50" duration="169.00" routeLength="1015.10" waitSteps="51" timeLoss="92.87" rerouteNo="0" devices="tripinfo_right_68" vType="typeWE" speedFactor="1.00" vaporized=""/>
    <tripinfo id="left_75" depart="349.00" departLane="52o_0" departPos="5.10" departSpeed="0.00" departDelay="3.00" arrival="493.00" arrivalLane="51i_0" arrivalPos="10.00" arrivalSpeed="11.36" duration="144.00" routeLength="1015.10" waitSteps="31" timeLoss="67.66" rerouteNo="0" devices="tripinfo_left_75" vType="typeWE" speedFactor="1.00" vaporized=""/>
    <tripinfo id="right_72" depart="342.00" departLane="51o_0" departPos="5.10" departSpeed="0.00" departDelay="0.00" arrival="494.00" arrivalLane="52i_0" arrivalPos="10.00" arrivalSpeed="11.18" duration="152.00" routeLength="1015.10" waitSteps="36" timeLoss="75.69" rerouteNo="0" devices="tripinfo_right_72" vType="typeWE" speedFactor="1.00" vaporized=""/>
    <tripinfo id="down_80" depart="383.00" departLane="54o_0" departPos="7.10" departSpeed="0.00" departDelay="4.00" arrival="507.00" arrivalLane="53i_0" arrivalPos="10.00" arrivalSpeed="11.61" duration="124.00" routeLength="1013.10" waitSteps="21" timeLoss="52.10" rerouteNo="0" devices="tripinfo_down_80" vType="typeNS" speedFactor="1.00" vaporized=""/>
    <tripinfo id="down_86" depart="394.00" departLane="54o_0" departPos="7.10" departSpeed="0.00" departDelay="0.00" arrival="509.00" arrivalLane="53i_0" arrivalPos="10.00" arrivalSpeed="10.85" duration="115.00" routeLength="1013.10" waitSteps="14" timeLoss="43.57" rerouteNo="0" devices="tripinfo_down_86" vType="typeNS" speedFactor="1.00" vaporized=""/>
    <tripinfo id="down_88" depart="400.00" departLane="54o_0" departPos="7.10" departSpeed="0.00" departDelay="3.00" arrival="511.00" arrivalLane="53i_0" arrivalPos="10.00" arrivalSpeed="11.01" duration="111.00" routeLength="1013.10" waitSteps="10" timeLoss="39.49" rerouteNo="0" devices="tripinfo_down_88" vType="typeNS" speedFactor="1.00" vaporized=""/>