<?xml version="1.0" encoding="UTF-8"?>

<!-- generated on Sun Feb 25 17:30:29 2018 by SUMO gui Version 0.32.0
<?xml version="1.0" encoding="UTF-8"?>

<configuration xmlns:xsi="http://www.w3.org/2001/XMLSchema-instance" xsi:noNamespaceSchemaLocation="http://sumo.dlr.de/xsd/sumoConfiguration.xsd">

    <input>
        <net-file value="data/cross.net.xml"/>
        <route-files value="data/cross.rou.xml"/>
        <additional-files value="data/cross.det.xml,data/cross.det2.xml"/>
    </input>

    <output>
        <tripinfo-output value="qg_tripinfo.xml"/>
    </output>

    <time>
        <begin value="0"/>
    </time>

    <report>
        <verbose value="true"/>
        <error-log value="errors"/>
        <no-step-log value="true"/>
    </report>

    <traci_server>
        <remote-port value="52025"/>
    </traci_server>

</configuration>
-->

<tripinfos xmlns:xsi="http://www.w3.org/2001/XMLSchema-instance" xsi:noNamespaceSchemaLocation="http://sumo.dlr.de/xsd/tripinfo_file.xsd">
    <tripinfo id="left_0" depart="0.00" departLane="52o_0" departPos="5.10" departSpeed="0.00" departDelay="0.00" arrival="91.00" arrivalLane="51i_0" arrivalPos="10.00" arrivalSpeed="11.69" duration="91.00" routeLength="1015.10" waitSteps="0" timeLoss="14.84" rerouteNo="0" devices="tripinfo_left_0" vType="typeWE" speedFactor="1.00" vaporized=""/>
    <tripinfo id="right_2" depart="3.00" departLane="51o_0" departPos="5.10" departSpeed="0.00" departDelay="0.00" arrival="94.00" arrivalLane="52i_0" arrivalPos="10.00" arrivalSpeed="11.53" duration="91.00" routeLength="1015.10" waitSteps="0" timeLoss="14.41" rerouteNo="0" devices="tripinfo_right_2" vType="typeWE" speedFactor="1.00" vaporized=""/>
    <tripinfo id="left_1" depart="5.00" departLane="52o_0" departPos="5.10" departSpeed="0.00" departDelay="3.00" arrival="97.00" arrivalLane="51i_0" arrivalPos="10.00" arrivalSpeed="11.59" duration="92.00" routeLength="1015.10" waitSteps="0" timeLoss="15.28" rerouteNo="0" devices="tripinfo_left_1" vType="typeWE" speedFactor="1.00" vaporized=""/>
    <tripinfo id="right_3" depart="8.00" departLane="51o_0" departPos="5.10" departSpeed="0.00" departDelay="4.00" arrival="99.00" arrivalLane="52i_0" arrivalPos="10.00" arrivalSpeed="11.66" duration="91.00" routeLength="1015.10" waitSteps="0" timeLoss="14.85" rerouteNo="0" devices="tripinfo_right_3" vType="typeWE" speedFactor="1.00" vaporized=""/>
    <tripinfo id="left_4" depart="10.00" departLane="52o_0" departPos="5.10" departSpeed="0.00" departDelay="4.00" arrival="101.00" arrivalLane="51i_0" arrivalPos="10.00" arrivalSpeed="11.53" duration="91.00" routeLength="1015.10" waitSteps="0" timeLoss="14.76" rerouteNo="0" devices="tripinfo_left_4" vType="typeWE" speedFactor="1.00" vaporized=""/>
    <tripinfo id="right_5" depart="13.00" departLane="51o_0" departPos="5.10" departSpeed="0.00" departDelay="4.00" arrival="104.00" arrivalLane="52i_0" arrivalPos="10.00" arrivalSpeed="11.64" duration="91.00" routeLength="1015.10" waitSteps="0" timeLoss="14.32" rerouteNo="0" devices="tripinfo_right_5" vType="typeWE" speedFactor="1.00" vaporized=""/>
    <tripinfo id="down_6" depart="13.00" departLane="54o_0" departPos="7.10" departSpeed="0.00" departDelay="0.00" arrival="123.00" arrivalLane="53i_0" arrivalPos="10.00" arrivalSpeed="11.68" duration="110.00" routeLength="1013.10" waitSteps="9" timeLoss="38.35" rerouteNo="0" devices="tripinfo_down_6" vType="typeNS" speedFactor="1.00" vaporized=""/>
    <tripinfo id="down_8" depart="29.00" departLane="54o_0" departPos="7.10" departSpeed="0.00" departDelay="0.00" arrival="125.00" arrivalLane="53i_0" arrivalPos="10.00" arrivalSpeed="11.61" duration="96.00" routeLength="1013.10" waitSteps="0" timeLoss="24.74" rerouteNo="0" devices="tripinfo_down_8" vType="typeNS" speedFactor="1.00" vaporized=""/>
    <tripinfo id="left_7" depart="22.00" departLane="52o_0" departPos="5.10" departSpeed="0.00" departDelay="0.00" arrival="170.00" arrivalLane="51i_0" arrivalPos="10.00" arrivalSpeed="11.49" duration="148.00" routeLength="1015.10" waitSteps="48" timeLoss="71.92" rerouteNo="0" devices="tripinfo_left_7" vType="typeWE" speedFactor="1.00" vaporized=""/>
    <tripinfo id="right_12" depart="42.00" departLane="51o_0" departPos="5.10" departSpeed="0.00" departDelay="0.00" arrival="170.00" arrivalLane="52i_0" arrivalPos="10.00" arrivalSpeed="11.49" duration="128.00" routeLength="1015.10" waitSteps="27" timeLoss="51.74" rerouteNo="0" devices="tripinfo_right_12" vType="typeWE" speedFactor="1.00" vaporized=""/>
    <tripinfo id="left_9" depart="31.00" departLane="52o_0" departPos="5.10" departSpeed="0.00" departDelay="0.00" arrival="172.00" arrivalLane="51i_0" arrivalPos="10.00" arrivalSpeed="11.50" duration="141.00" routeLength="1015.10" waitSteps="39" timeLoss="65.20" rerouteNo="0" devices="tripinfo_left_9" vType="typeWE" speedFactor="1.00" vaporized=""/>
    <tripinfo id="down_20" depart="89.00" departLane="54o_0" departPos="7.10" departSpeed="0.00" departDelay="0.00" arrival="177.00" arrivalLane="53i_0" arrivalPos="10.00" arrivalSpeed="11.47" duration="88.00" routeLength="1013.10" waitSteps="0" timeLoss="16.55" rerouteNo="0" devices="tripinfo_down_20" vType="typeNS" speedFactor="1.00" vaporized=""/>
    <tripinfo id="right_15" depart="55.00" departLane="51o_0" departPos="5.10" departSpeed="0.00" departDelay="0.00" arrival="194.00" arrivalLane="52i_0" arrivalPos="10.00" arrivalSpeed="11.56" duration="139.00" routeLength="1015.10" waitSteps="33" timeLoss="63.22" rerouteNo="0" devices="tripinfo_right_15" vType="typeWE" speedFactor="1.00" vaporized=""/>
    <tripinfo id="left_10" depart="36.00" departLane="52o_0" departPos="5.10" departSpeed="0.00" departDelay="3.00" arrival="195.00" arrivalLane="51i_0" arrivalPos="10.00" arrivalSpeed="11.21" duration="159.00" routeLength="1015.10" waitSteps="50" timeLoss="82.99" rerouteNo="0" devices="tripinfo_left_10" vType="typeWE" speedFactor="1.00" vaporized=""/>
    <tripinfo id="right_16" depart="61.00" departLane="51o_0" departPos="5.10" departSpeed="0.00" departDelay="0.00" arrival="196.00" arrivalLane="52i_0" arrivalPos="10.00" arrivalSpeed="10.94" duration="135.00" routeLength="1015.10" waitSteps="26" timeLoss="59.08" rerouteNo="0" devices="tripinfo_right_16" vType="typeWE" speedFactor="1.00" vaporized=""/>
    <tripinfo id="left_11" depart="41.00" departLane="52o_0" departPos="5.10" departSpeed="0.00" departDelay="0.00" arrival="197.00" arrivalLane="51i_0" arrivalPos="10.00" arrivalSpeed="11.41" duration="156.00" routeLength="1015.10" waitSteps="45" timeLoss="79.89" rerouteNo="0" devices="tripinfo_left_11" vType="typeWE" speedFactor="1.00" vaporized=""/>
    <tripinfo id="right_17" depart="69.00" departLane="51o_0" departPos="5.10" departSpeed="0.00" departDelay="0.00" arrival="198.00" arrivalLane="52i_0" arrivalPos="10.00" arrivalSpeed="11.40" duration="129.00" routeLength="1015.10" waitSteps="20" timeLoss="53.18" rerouteNo="0" devices="tripinfo_right_17" vType="typeWE" speedFactor="1.00" vaporized=""/>
    <tripinfo id="left_13" depart="46.00" departLane="52o_0" departPos="5.10" departSpeed="0.00" departDelay="1.00" arrival="200.00" arrivalLane="51i_0" arrivalPos="10.00" arrivalSpeed="11.41" duration="154.00" routeLength="1015.10" waitSteps="38" timeLoss="77.33" rerouteNo="0" devices="tripinfo_left_13" vType="typeWE" speedFactor="1.00" vaporized=""/>
    <tripinfo id="down_21" depart="96.00" departLane="54o_0" departPos="7.10" departSpeed="0.00" departDelay="0.00" arrival="212.00" arrivalLane="53i_0" arrivalPos="10.00" arrivalSpeed="11.32" duration="116.00" routeLength="1013.10" waitSteps="16" timeLoss="44.74" rerouteNo="0" devices="tripinfo_down_21" vType="typeNS" speedFactor="1.00" vaporized=""/>
    <tripinfo id="right_18" depart="84.00" departLane="51o_0" departPos="5.10" departSpeed="0.00" departDelay="0.00" arrival="224.00" arrivalLane="52i_0" arrivalPos="10.00" arrivalSpeed="10.77" duration="140.00" routeLength="1015.10" waitSteps="30" timeLoss="64.00" rerouteNo="0" devices="tripinfo_right_18" vType="typeWE" speedFactor="1.00" vaporized=""/>
    <tripinfo id="left_14" depart="53.00" departLane="52o_0" departPos="5.10" departSpeed="0.00" departDelay="0.00" arrival="224.00" arrivalLane="51i_0" arrivalPos="10.00" arrivalSpeed="11.74" duration="171.00" routeLength="1015.10" waitSteps="49" timeLoss="94.97" rerouteNo="0" devices="tripinfo_left_14" vType="typeWE" speedFactor="1.00" vaporized=""/>
    <tripinfo id="down_26" depart="122.00" departLane="54o_0" departPos="7.10" departSpeed="0.00" departDelay="0.00" arrival="237.00" arrivalLane="53i_0" arrivalPos="10.00" arrivalSpeed="11.56" duration="115.00" routeLength="1013.10" waitSteps="14" timeLoss="43.24" rerouteNo="0" devices="tripinfo_down_26" vType="typeNS" speedFactor="1.00" vaporized=""/>
    <tripinfo id="left_19" depart="85.00" departLane="52o_0" departPos="5.10" departSpeed="0.00" departDelay="0.00" arrival="249.00" arrivalLane="51i_0" arrivalPos="10.00" arrivalSpeed="11.70" duration="164.00" routeLength="1015.10" waitSteps="45" timeLoss="87.53" rerouteNo="0" devices="tripinfo_left_19" vType="typeWE" speedFactor="1.00" vaporized=""/>
    <tripinfo id="right_22" depart="101.00" departLane="51o_0" departPos="5.10" departSpeed="0.00" departDelay="2.00" arrival="249.00" arrivalLane="52i_0" arrivalPos="10.00" arrivalSpeed="11.68" duration="148.00" routeLength="1015.10" waitSteps="33" timeLoss="71.41" rerouteNo="0" devices="tripinfo_right_22" vType="typeWE" speedFactor="1.00" vaporized=""/>
    <tripinfo id="down_41" depart="172.00" departLane="54o_0" departPos="7.10" departSpeed="0.00" departDelay="0.00" arrival="261.00" arrivalLane="53i_0" arrivalPos="10.00" arrivalSpeed="11.40" duration="89.00" routeLength="1013.10" waitSteps="0" timeLoss="17.26" rerouteNo="0" devices="tripinfo_down_41" vType="typeNS" speedFactor="1.00" vaporized=""/>
    <tripinfo id="right_24" depart="108.00" departLane="51o_0" departPos="5.10" departSpeed="0.00" departDelay="0.00" arrival="284.00" arrivalLane="52i_0" arrivalPos="10.00" arrivalSpeed="11.51" duration="176.00" routeLength="1015.10" waitSteps="62" timeLoss="99.76" rerouteNo="0" devices="tripinfo_right_24" vType="typeWE" speedFactor="1.00" vaporized=""/>
    <tripinfo id="left_23" depart="99.00" departLane="52o_0" departPos="5.10" departSpeed="0.00" departDelay="0.00" arrival="285.00" arrivalLane="51i_0" arrivalPos="10.00" arrivalSpeed="11.45" duration="186.00" routeLength="1015.10" waitSteps="63" timeLoss="109.61" rerouteNo="0" devices="tripinfo_left_23" vType="typeWE" speedFactor="1.00" vaporized=""/>
    <tripinfo id="right_25" depart="114.00" departLane="51o_0" departPos="5.10" departSpeed="0.00" departDelay="0.00" arrival="286.00" arrivalLane="52i_0" arrivalPos="10.00" arrivalSpeed="11.75" duration="172.00" routeLength="1015.10" waitSteps="55" timeLoss="96.12" rerouteNo="0" devices="tripinfo_right_25" vType="typeWE" speedFactor="1.00" vaporized=""/>
    <tripinfo id="left_28" depart="131.00" departLane="52o_0" departPos="5.10" departSpeed="0.00" departDelay="0.00" arrival="287.00" arrivalLane="51i_0" arrivalPos="10.00" arrivalSpeed="11.20" duration="156.00" routeLength="1015.10" waitSteps="45" timeLoss="79.72" rerouteNo="0" devices="tripinfo_left_28" vType="typeWE" speedFactor="1.00" vaporized=""/>
    <tripinfo id="right_27" depart="125.00" departLane="51o_0" departPos="5.10" departSpeed="0.00" departDelay="0.00" arrival="288.00" arrivalLane="52i_0" arrivalPos="10.00" arrivalSpeed="11.62" duration="163.00" routeLength="1015.10" waitSteps="45" timeLoss="87.08" rerouteNo="0" devices="tripinfo_right_27" vType="typeWE" speedFactor="1.00" vaporized=""/>
    <tripinfo id="left_29" depart="136.00" departLane="52o_0" departPos="5.10" departSpeed="0.00" departDelay="1.00" arrival="289.00" arrivalLane="51i_0" arrivalPos="10.00" arrivalSpeed="11.54" duration="153.00" routeLength="1015.10" waitSteps="42" timeLoss="76.40" rerouteNo="0" devices="tripinfo_left_29" vType="typeWE" speedFactor="1.00" vaporized=""/>
    <tripinfo id="left_30" depart="141.00" departLane="52o_0" departPos="5.10" departSpeed="0.00" departDelay="3.00" arrival="290.00" arrivalLane="51i_0" arrivalPos="10.00" arrivalSpeed="11.42" duration="149.00" routeLength="1015.10" waitSteps="38" timeLoss="73.21" rerouteNo="0" devices="tripinfo_left_30" vType="typeWE" speedFactor="1.00" vaporized=""/>
    <tripinfo id="right_32" depart="145.00" departLane="51o_0" departPos="5.10" departSpeed="0.00" departDelay="0.00" arrival="290.00" arrivalLane="52i_0" arrivalPos="10.00" arrivalSpeed="11.85" duration="145.00" routeLength="1015.10" waitSteps="34" timeLoss="69.17" rerouteNo="0" devices="tripinfo_right_32" vType="typeWE" speedFactor="1.00" vaporized=""/>
    <tripinfo id="left_31" depart="146.00" departLane="52o_0" departPos="5.10" departSpeed="0.00" departDelay="4.00" arrival="292.00" arrivalLane="51i_0" arrivalPos="10.00" arrivalSpeed="11.60" duration="146.00" routeLength="1015.10" waitSteps="34" timeLoss="70.00" rerouteNo="0" devices="tripinfo_left_31" vType="typeWE" speedFactor="1.00" vaporized=""/>
    <tripinfo id="right_37" depart="167.00" departLane="51o_0" departPos="5.10" departSpeed="0.00" departDelay="0.00" arrival="293.00" arrivalLane="52i_0" arrivalPos="10.00" arrivalSpeed="11.78" duration="126.00" routeLength="1015.10" waitSteps="22" timeLoss="49.72" rerouteNo="0" devices="tripinfo_right_37" vType="typeWE" speedFactor="1.00" vaporized=""/>
    <tripinfo id="left_33" depart="153.00" departLane="52o_0" departPos="5.10" departSpeed="0.00" departDelay="0.00" arrival="294.00" arrivalLane="51i_0" arrivalPos="10.00" arrivalSpeed="11.73" duration="141.00" routeLength="1015.10" waitSteps="29" timeLoss="64.68" rerouteNo="0" devices="tripinfo_left_33" vType="typeWE" speedFactor="1.00" vaporized=""/>
    <tripinfo id="right_38" depart="172.00" departLane="51o_0" departPos="5.10" departSpeed="0.00" departDelay="4.00" arrival="295.00" arrivalLane="52i_0" arrivalPos="10.00" arrivalSpeed="11.55" duration="123.00" routeLength="1015.10" waitSteps="17" timeLoss="46.46" rerouteNo="0" devices="tripinfo_right_38" vType="typeWE" speedFactor="1.00" vaporized=""/>
    <tripinfo id="left_34" depart="158.00" departLane="52o_0" departPos="5.10" departSpeed="0.00" departDelay="2.00" arrival="296.00" arrivalLane="51i_0" arrivalPos="10.00" arrivalSpeed="11.23" duration="138.00" routeLength="1015.10" waitSteps="25" timeLoss="61.63" rerouteNo="0" devices="tripinfo_left_34" vType="typeWE" speedFactor="1.00" vaporized=""/>
    <tripinfo id="left_35" depart="163.00" departLane="52o_0" departPos="5.10" departSpeed="0.00" departDelay="3.00" arrival="297.00" arrivalLane="51i_0" arrivalPos="10.00" arrivalSpeed="11.09" duration="134.00" routeLength="1015.10" waitSteps="26" timeLoss="58.00" rerouteNo="0" devices="tripinfo_left_35" vType="typeWE" speedFactor="1.00" vaporized=""/>
    <tripinfo id="right_42" depart="177.00" departLane="51o_0" departPos="5.10" departSpeed="0.00" departDelay="1.00" arrival="297.00" arrivalLane="52i_0" arrivalPos="10.00" arrivalSpeed="11.26" duration="120.00" routeLength="1015.10" waitSteps="15" timeLoss="43.77" rerouteNo="0" devices="tripinfo_right_42" vType="typeWE" speedFactor="1.00" vaporized=""/>
    <tripinfo id="left_36" depart="170.00" departLane="52o_0" departPos="5.10" departSpeed="0.00" departDelay="6.00" arrival="299.00" arrivalLane="51i_0" arrivalPos="10.00" arrivalSpeed="11.73" duration="129.00" routeLength="1015.10" waitSteps="25" timeLoss="53.17" rerouteNo="0" devices="tripinfo_left_36" vType="typeWE" speedFactor="1.00" vaporized=""/>
    <tripinfo id="right_43" depart="182.00" departLane="51o_0" departPos="5.10" departSpeed="0.00" departDelay="1.00" arrival="299.00" arrivalLane="52i_0" arrivalPos="10.00" arrivalSpeed="11.28" duration="117.00" routeLength="1015.10" waitSteps="10" timeLoss="40.56" rerouteNo="0" devices="tripinfo_right_43" vType="typeWE" speedFactor="1.00" vaporized=""/>
    <tripinfo id="right_44" depart="187.00" departLane="51o_0" departPos="5.10" departSpeed="0.00" departDelay="4.00" arrival="301.00" arrivalLane="52i_0" arrivalPos="10.00" arrivalSpeed="11.34" duration="114.00" routeLength="1015.10" waitSteps="7" timeLoss="37.37" rerouteNo="0" devices="tripinfo_right_44" vType="typeWE" speedFactor="1.00" vaporized=""/>
    <tripinfo id="left_39" depart="175.00" departLane="52o_0" departPos="5.10" departSpeed="0.00" departDelay="6.00" arrival="302.00" arrivalLane="51i_0" arrivalPos="10.00" arrivalSpeed="11.71" duration="127.00" routeLength="1015.10" waitSteps="22" timeLoss="50.52" rerouteNo="0" devices="tripinfo_left_39" vType="typeWE" speedFactor="1.00" vaporized=""/>
    <tripinfo id="right_48" depart="200.00" departLane="51o_0" departPos="5.10" departSpeed="0.00" departDelay="0.00" arrival="302.00" arrivalLane="52i_0" arrivalPos="10.00" arrivalSpeed="11.35" duration="102.00" routeLength="1015.10" waitSteps="0" timeLoss="26.16" rerouteNo="0" devices="tripinfo_right_48" vType="typeWE" speedFactor="1.00" vaporized=""/>
    <tripinfo id="left_40" depart="180.00" departLane="52o_0" departPos="5.10" departSpeed="0.00" departDelay="8.00" arrival="304.00" arrivalLane="51i_0" arrivalPos="10.00" arrivalSpeed="11.45" duration="124.00" routeLength="1015.10" waitSteps="20" timeLoss="47.44" rerouteNo="0" devices="tripinfo_left_40" vType="typeWE" speedFactor="1.00" vaporized=""/>
    <tripinfo id="left_45" depart="194.00" departLane="52o_0" departPos="5.10" departSpeed="0.00" departDelay="0.00" arrival="306.00" arrivalLane="51i_0" arrivalPos="10.00" arrivalSpeed="11.46" duration="112.00" routeLength="1015.10" waitSteps="5" timeLoss="35.32" rerouteNo="0" devices="tripinfo_left_45" vType="typeWE" speedFactor="1.00" vaporized=""/>
    <tripinfo id="left_46" depart="199.00" departLane="52o_0" departPos="5.10" departSpeed="0.00" departDelay="3.00" arrival="308.00" arrivalLane="51i_0" arrivalPos="10.00" arrivalSpeed="11.52" duration="109.00" routeLength="1015.10" waitSteps="3" timeLoss="32.80" rerouteNo="0" devices="tripinfo_left_46" vType="typeWE" speedFactor="1.00" vaporized=""/>
    <tripinfo id="right_50" depart="217.00" departLane="51o_0" departPos="5.10" departSpeed="0.00" departDelay="0.00" arrival="309.00" arrivalLane="52i_0" arrivalPos="10.00" arrivalSpeed="11.53" duration="92.00" routeLength="1015.10" waitSteps="0" timeLoss="15.75" rerouteNo="0" devices="tripinfo_right_50" vType="typeWE" speedFactor="1.00" vaporized=""/>
    <tripinfo id="left_47" depart="204.00" departLane="52o_0" departPos="5.10" departSpeed="0.00" departDelay="5.00" arrival="310.00" arrivalLane="51i_0" arrivalPos="10.00" arrivalSpeed="11.70" duration="106.00" routeLength="1015.10" waitSteps="0" timeLoss="29.38" rerouteNo="0" devices="tripinfo_left_47" vType="typeWE" speedFactor="1.00" vaporized=""/>
    <tripinfo id="left_49" depart="212.00" departLane="52o_0" departPos="5.10" departSpeed="0.00" departDelay="0.00" arrival="311.00" arrivalLane="51i_0" arrivalPos="10.00" arrivalSpeed="11.01" duration="99.00" routeLength="1015.10" waitSteps="0" timeLoss="22.85" rerouteNo="0" devices="tripinfo_left_49" vType="typeWE" speedFactor="1.00" vaporized=""/>
    <tripinfo id="left_51" depart="219.00" departLane="52o_0" departPos="5.10" departSpeed="0.00" departDelay="0.00" arrival="313.00" arrivalLane="51i_0" arrivalPos="10.00" arrivalSpeed="11.05" duration="94.00" routeLength="1015.10" waitSteps="0" timeLoss="17.93" rerouteNo="0" devices="tripinfo_left_51" vType="typeWE" speedFactor="1.00" vaporized=""/>
    <tripinfo id="right_52" depart="228.00" departLane="51o_0" departPos="5.10" departSpeed="0.00" departDelay="0.00" arrival="319.00" arrivalLane="52i_0" arrivalPos="10.00" arrivalSpeed="11.32" duration="91.00" routeLength="1015.10" waitSteps="0" timeLoss="14.22" rerouteNo="0" devices="tripinfo_right_52" vType="typeWE" speedFactor="1.00" vaporized=""/>
    <tripinfo id="left_53" depart="234.00" departLane="52o_0" departPos="5.10" departSpeed="0.00" departDelay="0.00" arrival="325.00" arrivalLane="51i_0" arrivalPos="10.00" arrivalSpeed="11.27" duration="91.00" routeLength="1015.10" waitSteps="0" timeLoss="14.47" rerouteNo="0" devices="tripinfo_left_53" vType="typeWE" speedFactor="1.00" vaporized=""/>
    <tripinfo id="left_54" depart="239.00" departLane="52o_0" departPos="5.10" departSpeed="0.00" departDelay="1.00" arrival="329.00" arrivalLane="51i_0" arrivalPos="10.00" arrivalSpeed="11.73" duration="90.00" routeLength="1015.10" waitSteps="0" timeLoss="13.76" rerouteNo="0" devices="tripinfo_left_54" vType="typeWE" speedFactor="1.00" vaporized=""/>
    <tripinfo id="down_55" depart="238.00" departLane="54o_0" departPos="7.10" departSpeed="0.00" departDelay="0.00" arrival="344.00" arrivalLane="53i_0" arrivalPos="10.00" arrivalSpeed="11.21" duration="106.00" routeLength="1013.10" waitSteps="6" timeLoss="34.68" rerouteNo="0" devices="tripinfo_down_55" vType="typeNS" speedFactor="1.00" vaporized=""/>
    <tripinfo id="down_57" depart="244.00" departLane="54o_0" departPos="7.10" departSpeed="0.00" departDelay="2.00" arrival="347.00" arrivalLane="53i_0" arrivalPos="10.00" arrivalSpeed="11.61" duration="103.00" routeLength="1013.10" waitSteps="1" timeLoss="31.48" rerouteNo="0" devices="tripinfo_down_57" vType="typeNS" speedFactor="1.00" vaporized=""/>
    <tripinfo id="down_60" depart="283.00" departLane="54o_0" departPos="7.10" departSpeed="0.00" departDelay="0.00" arrival="373.00" arrivalLane="53i_0" arrivalPos="10.00" arrivalSpeed="11.79" duration="90.00" routeLength="1013.10" waitSteps="0" timeLoss="18.27" rerouteNo="0" devices="tripinfo_down_60" vType="typeNS" speedFactor="1.00" vaporized=""/>
    <tripinfo id="down_66" depart="302.00" departLane="54o_0" departPos="7.10" departSpeed="0.00" departDelay="0.00" arrival="392.00" arrivalLane="53i_0" arrivalPos="10.00" arrivalSpeed="11.14" duration="90.00" routeLength="1013.10" waitSteps="0" timeLoss="18.34" rerouteNo="0" devices="tripinfo_down_66" vType="typeNS" speedFactor="1.00" vaporized=""/>
    <tripinfo id="down_67" depart="318.00" departLane="54o_0" departPos="7.10" departSpeed="0.00" departDelay="0.00" arrival="408.00" arrivalLane="53i_0" arrivalPos="10.00" arrivalSpeed="11.50" duration="90.00" routeLength="1013.10" waitSteps="0" timeLoss="18.44" rerouteNo="0" devices="tripinfo_down_67" vType="typeNS" speedFactor="1.00" vaporized=""/>
    <tripinfo id="left_58" depart="272.00" departLane="52o_0" departPos="5.10" departSpeed="0.00" departDelay="0.00" arrival="423.00" arrivalLane="51i_0" arrivalPos="10.00" arrivalSpeed="10.74" duration="151.00" routeLength="1015.10" waitSteps="47" timeLoss="74.99" rerouteNo="0" devices="tripinfo_left_58" vType="typeWE" speedFactor="1.00" vaporized=""/>
    <tripinfo id="right_56" depart="240.00" departLane="51o_0" departPos="5.10" departSpeed="0.00" departDelay="0.00" arrival="423.00" arrivalLane="52i_0" arrivalPos="10.00" arrivalSpeed="11.13" duration="183.00" routeLength="1015.10" waitSteps="80" timeLoss="106.84" rerouteNo="0" devices="tripinfo_right_56" vType="typeWE" speedFactor="1.00" vaporized=""/>
    <tripinfo id="down_69" depart="331.00" departLane="54o_0" departPos="7.10" departSpeed="0.00" departDelay="0.00" arrival="434.00" arrivalLane="53i_0" arrivalPos="10.00" arrivalSpeed="11.74" duration="103.00" routeLength="1013.10" waitSteps="2" timeLoss="31.35" rerouteNo="0" devices="tripinfo_down_69" vType="typeNS" speedFactor="1.00" vaporized=""/>
    <tripinfo id="left_59" depart="278.00" departLane="52o_0" departPos="5.10" departSpeed="0.00" departDelay="3.00" arrival="446.00" arrivalLane="51i_0" arrivalPos="10.00" arrivalSpeed="11.52" duration="168.00" routeLength="1015.10" waitSteps="60" timeLoss="92.26" rerouteNo="0" devices="tripinfo_left_59" vType="typeWE" speedFactor="1.00" vaporized=""/>
    <tripinfo id="right_61" depart="290.00" departLane="51o_0" departPos="5.10" departSpeed="0.00" departDelay="6.00" arrival="447.00" arrivalLane="52i_0" arrivalPos="10.00" arrivalSpeed="11.39" duration="157.00" routeLength="1015.10" waitSteps="50" timeLoss="80.44" rerouteNo="0" devices="tripinfo_right_61" vType="typeWE" speedFactor="1.00" vaporized=""/>
    <tripinfo id="down_70" depart="337.00" departLane="54o_0" departPos="7.10" departSpeed="0.00" departDelay="0.00" arrival="458.00" arrivalLane="53i_0" arrivalPos="10.00" arrivalSpeed="11.52" duration="121.00" routeLength="1013.10" waitSteps="17" timeLoss="49.53" rerouteNo="0" devices="tripinfo_down_70" vType="typeNS" speedFactor="1.00" vaporized=""/>
    <tripinfo id="down_74" depart="344.00" departLane="54o_0" departPos="7.10" departSpeed="0.00" departDelay="0.00" arrival="461.00" arrivalLane="53i_0" arrivalPos="10.00" arrivalSpeed="11.52" duration="117.00" routeLength="1013.10" waitSteps="15" timeLoss="45.45" rerouteNo="0" devices="tripinfo_down_74" vType="typeNS" speedFactor="1.00" vaporized=""/>
    <tripinfo id="down_76" depart="350.00" departLane="54o_0" departPos="7.10" departSpeed="0.00" departDelay="1.00" arrival="463.00" arrivalLane="53i_0" arrivalPos="10.00" arrivalSpeed="11.68" duration="113.00" routeLength="1013.10" waitSteps="10" timeLoss="41.76" rerouteNo="0" devices="tripinfo_down_76" vType="typeNS" speedFactor="1.00" vaporized=""/>
    <tripinfo id="down_79" depart="377.00" departLane="54o_0" departPos="7.10" departSpeed="0.00" departDelay="0.00" arrival="466.00" arrivalLane="53i_0" arrivalPos="10.00" arrivalSpeed="11.41" duration="89.00" routeLength="1013.10" waitSteps="0" timeLoss="17.44" rerouteNo="0" devices="tripinfo_down_79" vType="typeNS" speedFactor="1.00" vaporized=""/>
    <tripinfo id="down_80" depart="383.00" departLane="54o_0" departPos="7.10" departSpeed="0.00" departDelay="4.00" arrival="473.00" arrivalLane="53i_0" arrivalPos="10.00" arrivalSpeed="11.38" duration="90.00" routeLength="1013.10" waitSteps="0" timeLoss="18.27" rerouteNo="0" devices="tripinfo_down_80" vType="typeNS" speedFactor="1.00" vaporized=""/>
    <tripinfo id="down_86" depart="394.00" departLane="54o_0" departPos="7.10" departSpeed="0.00" departDelay="0.00" arrival="484.00" arrivalLane="53i_0" arrivalPos="10.00" arrivalSpeed="11.86" duration="90.00" routeLength="1013.10" waitSteps="0" timeLoss="17.98" rerouteNo="0" devices="tripinfo_down_86" vType="typeNS" speedFactor="1.00" vaporized=""/>
    <tripinfo id="down_88" depart="400.00" departLane="54o_0" departPos="7.10" departSpeed="0.00" departDelay="3.00" arrival="489.00" arrivalLane="53i_0" arrivalPos="10.00" arrivalSpeed="11.23" duration="89.00" routeLength="1013.10" waitSteps="0" timeLoss="17.52" rerouteNo="0" devices="tripinfo_down_88" vType="typeNS" speedFactor="1.00" vaporized=""/>
    <tripinfo id="left_71" depart="339.00" departLane="52o_0" departPos="5.10" departSpeed="0.00" departDelay="0.00" arrival="518.00" arrivalLane="51i_0" arrivalPos="10.00" arrivalSpeed="11.60" duration="179.00" routeLength="1015.10" waitSteps="71" timeLoss="103.25" rerouteNo="0" devices="tripinfo_left_71" vType="typeWE" speedFactor="1.00" vaporized=""/>
    <tripinfo id="right_62" depart="297.00" departLane="51o_0" departPos="5.10" departSpeed="0.00" departDelay="11.00" arrival="518.00" arrivalLane="52i_0" arrivalPos="10.00" arrivalSpeed="11.38" duration="221.00" routeLength="1015.10" waitSteps="108" timeLoss="145.08" rerouteNo="0" devices="tripinfo_right_62" vType="typeWE" speedFactor="1.00" vaporized=""/>
    <tripinfo id="right_63" depart="311.00" departLane="51o_0" departPos="5.10" departSpeed="0.00" departDelay="23.00" arrival="521.00" arrivalLane="52i_0" arrivalPos="10.00" arrivalSpeed="11.73" duration="210.00" routeLength="1015.10" waitSteps="94" timeLoss="133.40" rerouteNo="0" devices="tripinfo_right_63" vType="typeWE" speedFactor="1.00" vaporized=""/>
    <tripinfo id="down_94" depart="440.00" departLane="54o_0" departPos="7.10" departSpeed="0.00" departDelay="0.00" arrival="529.00" arrivalLane="53i_0" arrivalPos="10.00" arrivalSpeed="11.32" duration="89.00" routeLength="1013.10" waitSteps="0" timeLoss="17.07" rerouteNo="0" devices="tripinfo_down_94" vType="typeNS" speedFactor="1.00" vaporized=""/>
    <tripinfo id="right_64" depart="316.00" departLane="51o_0" departPos="5.10" departSpeed="0.00" departDelay="25.00" arrival="542.00" arrivalLane="52i_0" arrivalPos="10.00" arrivalSpeed="11.59" duration="226.00" routeLength="1015.10" waitSteps="105" timeLoss="150.07" rerouteNo="0" devices="tripinfo_right_64" vType="typeWE" speedFactor="1.00" vaporized=""/>
    <tripinfo id="left_73" depart="344.00" departLane="52o_0" departPos="5.10" departSpeed="0.00" departDelay="0.00" arrival="543.00" arrivalLane="51i_0" arrivalPos="10.00" arrivalSpeed="11.31" duration="199.00" routeLength="1015.10" waitSteps="84" timeLoss="122.73" rerouteNo="0" devices="tripinfo_left_73" vType="typeWE" speedFactor="1.00" vaporized=""/>
    <tripinfo id="right_65" depart="321.00" departLane="51o_0" departPos="5.10" departSpeed="0.00" departDelay="27.00" arrival="544.00" arrivalLane="52i_0" arrivalPos="10.00" arrivalSpeed="11.55" duration="223.00" routeLength="1015.10" waitSteps="99" timeLoss="146.87" rerouteNo="0" devices="tripinfo_right_65" vType="typeWE" speedFactor="1.00" vaporized=""/>
    <tripinfo id="down_95" depart="457.00" departLane="54o_0" departPos="7.10" departSpeed="0.00" departDelay="0.00" arrival="546.00" arrivalLane="53i_0" arrivalPos="10.00" arrivalSpeed="11.08" duration="89.00" routeLength="1013.10" waitSteps="0" timeLoss="17.28" rerouteNo="0" devices="tripinfo_down_95" vType="typeNS" speedFactor="1.00" vaporized=""/>
    <tripinfo id="down_97" depart="463.00" departLane="54o_0" departPos="7.10" departSpeed="0.00" departDelay="4.00" arrival="554.00" arrivalLane="53i_0" arrivalPos="10.00" arrivalSpeed="11.61" duration="91.00" routeLength="1013.10" waitSteps="0" timeLoss="19.30" rerouteNo="0" devices="tripinfo_down_97" vType="typeNS" speedFactor="1.00" vaporized=""/>