<?xml version="1.0" encoding="UTF-8"?>

<!-- generated on Sun Mar 11 22:22:09 2018 by SUMO Version 0.32.0
<?xml version="1.0" encoding="UTF-8"?>

<configuration xmlns:xsi="http://www.w3.org/2001/XMLSchema-instance" xsi:noNamespaceSchemaLocation="http://sumo.dlr.de/xsd/sumoConfiguration.xsd">

    <input>
        <net-file value="data/cross.net.xml"/>
        <route-files value="data/cross.rou.xml"/>
        <additional-files value="data/cross.det.xml,data/cross.det2.xml"/>
    </input>

    <output>
        <tripinfo-output value="qleepisode4_tripinfo.xml"/>
    </output>

    <time>
        <begin value="0"/>
    </time>

    <report>
        <verbose value="true"/>
        <error-log value="errors"/>
        <no-step-log value="true"/>
    </report>

    <traci_server>
        <remote-port value="49642"/>
    </traci_server>

</configuration>
-->

<tripinfos xmlns:xsi="http://www.w3.org/2001/XMLSchema-instance" xsi:noNamespaceSchemaLocation="http://sumo.dlr.de/xsd/tripinfo_file.xsd">
    <tripinfo id="left_0" depart="0.00" departLane="52o_0" departPos="5.10" departSpeed="0.00" departDelay="0.00" arrival="91.00" arrivalLane="51i_0" arrivalPos="10.00" arrivalSpeed="11.49" duration="91.00" routeLength="1015.10" waitSteps="0" timeLoss="14.86" rerouteNo="0" devices="tripinfo_left_0" vType="typeWE" speedFactor="1.00" vaporized=""/>
    <tripinfo id="right_2" depart="3.00" departLane="51o_0" departPos="5.10" departSpeed="0.00" departDelay="0.00" arrival="94.00" arrivalLane="52i_0" arrivalPos="10.00" arrivalSpeed="11.63" duration="91.00" routeLength="1015.10" waitSteps="0" timeLoss="14.31" rerouteNo="0" devices="tripinfo_right_2" vType="typeWE" speedFactor="1.00" vaporized=""/>
    <tripinfo id="left_1" depart="5.00" departLane="52o_0" departPos="5.10" departSpeed="0.00" departDelay="3.00" arrival="97.00" arrivalLane="51i_0" arrivalPos="10.00" arrivalSpeed="11.59" duration="92.00" routeLength="1015.10" waitSteps="0" timeLoss="15.29" rerouteNo="0" devices="tripinfo_left_1" vType="typeWE" speedFactor="1.00" vaporized=""/>
    <tripinfo id="right_3" depart="8.00" departLane="51o_0" departPos="5.10" departSpeed="0.00" departDelay="4.00" arrival="99.00" arrivalLane="52i_0" arrivalPos="10.00" arrivalSpeed="11.46" duration="91.00" routeLength="1015.10" waitSteps="0" timeLoss="15.00" rerouteNo="0" devices="tripinfo_right_3" vType="typeWE" speedFactor="1.00" vaporized=""/>
    <tripinfo id="left_4" depart="10.00" departLane="52o_0" departPos="5.10" departSpeed="0.00" departDelay="4.00" arrival="101.00" arrivalLane="51i_0" arrivalPos="10.00" arrivalSpeed="11.45" duration="91.00" routeLength="1015.10" waitSteps="0" timeLoss="14.87" rerouteNo="0" devices="tripinfo_left_4" vType="typeWE" speedFactor="1.00" vaporized=""/>
    <tripinfo id="right_5" depart="13.00" departLane="51o_0" departPos="5.10" departSpeed="0.00" departDelay="4.00" arrival="104.00" arrivalLane="52i_0" arrivalPos="10.00" arrivalSpeed="11.83" duration="91.00" routeLength="1015.10" waitSteps="0" timeLoss="14.24" rerouteNo="0" devices="tripinfo_right_5" vType="typeWE" speedFactor="1.00" vaporized=""/>
    <tripinfo id="left_7" depart="22.00" departLane="52o_0" departPos="5.10" departSpeed="0.00" departDelay="0.00" arrival="112.00" arrivalLane="51i_0" arrivalPos="10.00" arrivalSpeed="11.82" duration="90.00" routeLength="1015.10" waitSteps="0" timeLoss="13.78" rerouteNo="0" devices="tripinfo_left_7" vType="typeWE" speedFactor="1.00" vaporized=""/>
    <tripinfo id="left_9" depart="31.00" departLane="52o_0" departPos="5.10" departSpeed="0.00" departDelay="0.00" arrival="122.00" arrivalLane="51i_0" arrivalPos="10.00" arrivalSpeed="11.66" duration="91.00" routeLength="1015.10" waitSteps="0" timeLoss="14.77" rerouteNo="0" devices="tripinfo_left_9" vType="typeWE" speedFactor="1.00" vaporized=""/>
    <tripinfo id="left_10" depart="36.00" departLane="52o_0" departPos="5.10" departSpeed="0.00" departDelay="3.00" arrival="127.00" arrivalLane="51i_0" arrivalPos="10.00" arrivalSpeed="11.57" duration="91.00" routeLength="1015.10" waitSteps="0" timeLoss="14.82" rerouteNo="0" devices="tripinfo_left_10" vType="typeWE" speedFactor="1.00" vaporized=""/>
    <tripinfo id="left_11" depart="41.00" departLane="52o_0" departPos="5.10" departSpeed="0.00" departDelay="0.00" arrival="132.00" arrivalLane="51i_0" arrivalPos="10.00" arrivalSpeed="11.57" duration="91.00" routeLength="1015.10" waitSteps="0" timeLoss="14.79" rerouteNo="0" devices="tripinfo_left_11" vType="typeWE" speedFactor="1.00" vaporized=""/>
    <tripinfo id="down_6" depart="13.00" departLane="54o_0" departPos="7.10" departSpeed="0.00" departDelay="0.00" arrival="147.00" arrivalLane="53i_0" arrivalPos="10.00" arrivalSpeed="11.53" duration="134.00" routeLength="1013.10" waitSteps="33" timeLoss="62.37" rerouteNo="0" devices="tripinfo_down_6" vType="typeNS" speedFactor="1.00" vaporized=""/>
    <tripinfo id="down_8" depart="29.00" departLane="54o_0" departPos="7.10" departSpeed="0.00" departDelay="0.00" arrival="149.00" arrivalLane="53i_0" arrivalPos="10.00" arrivalSpeed="11.74" duration="120.00" routeLength="1013.10" waitSteps="18" timeLoss="48.36" rerouteNo="0" devices="tripinfo_down_8" vType="typeNS" speedFactor="1.00" vaporized=""/>
    <tripinfo id="left_13" depart="46.00" departLane="52o_0" departPos="5.10" departSpeed="0.00" departDelay="1.00" arrival="164.00" arrivalLane="51i_0" arrivalPos="10.00" arrivalSpeed="10.90" duration="118.00" routeLength="1015.10" waitSteps="16" timeLoss="42.04" rerouteNo="0" devices="tripinfo_left_13" vType="typeWE" speedFactor="1.00" vaporized=""/>
    <tripinfo id="right_12" depart="42.00" departLane="51o_0" departPos="5.10" departSpeed="0.00" departDelay="0.00" arrival="165.00" arrivalLane="52i_0" arrivalPos="10.00" arrivalSpeed="11.52" duration="123.00" routeLength="1015.10" waitSteps="21" timeLoss="47.20" rerouteNo="0" devices="tripinfo_right_12" vType="typeWE" speedFactor="1.00" vaporized=""/>
    <tripinfo id="left_14" depart="53.00" departLane="52o_0" departPos="5.10" departSpeed="0.00" departDelay="0.00" arrival="166.00" arrivalLane="51i_0" arrivalPos="10.00" arrivalSpeed="11.65" duration="113.00" routeLength="1015.10" waitSteps="11" timeLoss="37.02" rerouteNo="0" devices="tripinfo_left_14" vType="typeWE" speedFactor="1.00" vaporized=""/>
    <tripinfo id="right_15" depart="55.00" departLane="51o_0" departPos="5.10" departSpeed="0.00" departDelay="0.00" arrival="167.00" arrivalLane="52i_0" arrivalPos="10.00" arrivalSpeed="11.16" duration="112.00" routeLength="1015.10" waitSteps="8" timeLoss="36.06" rerouteNo="0" devices="tripinfo_right_15" vType="typeWE" speedFactor="1.00" vaporized=""/>
    <tripinfo id="right_16" depart="61.00" departLane="51o_0" departPos="5.10" departSpeed="0.00" departDelay="0.00" arrival="169.00" arrivalLane="52i_0" arrivalPos="10.00" arrivalSpeed="11.40" duration="108.00" routeLength="1015.10" waitSteps="5" timeLoss="31.98" rerouteNo="0" devices="tripinfo_right_16" vType="typeWE" speedFactor="1.00" vaporized=""/>
    <tripinfo id="right_17" depart="69.00" departLane="51o_0" departPos="5.10" departSpeed="0.00" departDelay="0.00" arrival="171.00" arrivalLane="52i_0" arrivalPos="10.00" arrivalSpeed="11.55" duration="102.00" routeLength="1015.10" waitSteps="0" timeLoss="25.71" rerouteNo="0" devices="tripinfo_right_17" vType="typeWE" speedFactor="1.00" vaporized=""/>
    <tripinfo id="right_18" depart="84.00" departLane="51o_0" departPos="5.10" departSpeed="0.00" departDelay="0.00" arrival="175.00" arrivalLane="52i_0" arrivalPos="10.00" arrivalSpeed="11.51" duration="91.00" routeLength="1015.10" waitSteps="0" timeLoss="15.04" rerouteNo="0" devices="tripinfo_right_18" vType="typeWE" speedFactor="1.00" vaporized=""/>
    <tripinfo id="left_19" depart="85.00" departLane="52o_0" departPos="5.10" departSpeed="0.00" departDelay="0.00" arrival="176.00" arrivalLane="51i_0" arrivalPos="10.00" arrivalSpeed="11.67" duration="91.00" routeLength="1015.10" waitSteps="0" timeLoss="14.66" rerouteNo="0" devices="tripinfo_left_19" vType="typeWE" speedFactor="1.00" vaporized=""/>
    <tripinfo id="left_23" depart="99.00" departLane="52o_0" departPos="5.10" departSpeed="0.00" departDelay="0.00" arrival="190.00" arrivalLane="51i_0" arrivalPos="10.00" arrivalSpeed="11.30" duration="91.00" routeLength="1015.10" waitSteps="0" timeLoss="15.01" rerouteNo="0" devices="tripinfo_left_23" vType="typeWE" speedFactor="1.00" vaporized=""/>
    <tripinfo id="right_22" depart="101.00" departLane="51o_0" departPos="5.10" departSpeed="0.00" departDelay="2.00" arrival="194.00" arrivalLane="52i_0" arrivalPos="10.00" arrivalSpeed="11.65" duration="93.00" routeLength="1015.10" waitSteps="0" timeLoss="16.94" rerouteNo="0" devices="tripinfo_right_22" vType="typeWE" speedFactor="1.00" vaporized=""/>
    <tripinfo id="down_20" depart="89.00" departLane="54o_0" departPos="7.10" departSpeed="0.00" departDelay="0.00" arrival="207.00" arrivalLane="53i_0" arrivalPos="10.00" arrivalSpeed="11.27" duration="118.00" routeLength="1013.10" waitSteps="17" timeLoss="46.31" rerouteNo="0" devices="tripinfo_down_20" vType="typeNS" speedFactor="1.00" vaporized=""/>
    <tripinfo id="down_21" depart="96.00" departLane="54o_0" departPos="7.10" departSpeed="0.00" departDelay="0.00" arrival="209.00" arrivalLane="53i_0" arrivalPos="10.00" arrivalSpeed="11.52" duration="113.00" routeLength="1013.10" waitSteps="11" timeLoss="41.52" rerouteNo="0" devices="tripinfo_down_21" vType="typeNS" speedFactor="1.00" vaporized=""/>
    <tripinfo id="left_28" depart="131.00" departLane="52o_0" departPos="5.10" departSpeed="0.00" departDelay="0.00" arrival="223.00" arrivalLane="51i_0" arrivalPos="10.00" arrivalSpeed="11.51" duration="92.00" routeLength="1015.10" waitSteps="0" timeLoss="15.72" rerouteNo="0" devices="tripinfo_left_28" vType="typeWE" speedFactor="1.00" vaporized=""/>
    <tripinfo id="right_24" depart="108.00" departLane="51o_0" departPos="5.10" departSpeed="0.00" departDelay="0.00" arrival="225.00" arrivalLane="52i_0" arrivalPos="10.00" arrivalSpeed="11.51" duration="117.00" routeLength="1015.10" waitSteps="13" timeLoss="40.78" rerouteNo="0" devices="tripinfo_right_24" vType="typeWE" speedFactor="1.00" vaporized=""/>
    <tripinfo id="right_25" depart="114.00" departLane="51o_0" departPos="5.10" departSpeed="0.00" departDelay="0.00" arrival="227.00" arrivalLane="52i_0" arrivalPos="10.00" arrivalSpeed="11.53" duration="113.00" routeLength="1015.10" waitSteps="8" timeLoss="36.54" rerouteNo="0" devices="tripinfo_right_25" vType="typeWE" speedFactor="1.00" vaporized=""/>
    <tripinfo id="right_27" depart="127.00" departLane="51o_0" departPos="5.10" departSpeed="0.00" departDelay="2.00" arrival="228.00" arrivalLane="52i_0" arrivalPos="10.00" arrivalSpeed="11.01" duration="101.00" routeLength="1015.10" waitSteps="0" timeLoss="25.00" rerouteNo="0" devices="tripinfo_right_27" vType="typeWE" speedFactor="1.00" vaporized=""/>
    <tripinfo id="left_29" depart="136.00" departLane="52o_0" departPos="5.10" departSpeed="0.00" departDelay="1.00" arrival="228.00" arrivalLane="51i_0" arrivalPos="10.00" arrivalSpeed="11.32" duration="92.00" routeLength="1015.10" waitSteps="0" timeLoss="15.69" rerouteNo="0" devices="tripinfo_left_29" vType="typeWE" speedFactor="1.00" vaporized=""/>
    <tripinfo id="left_30" depart="142.00" departLane="52o_0" departPos="5.10" departSpeed="0.00" departDelay="4.00" arrival="234.00" arrivalLane="51i_0" arrivalPos="10.00" arrivalSpeed="11.83" duration="92.00" routeLength="1015.10" waitSteps="0" timeLoss="15.21" rerouteNo="0" devices="tripinfo_left_30" vType="typeWE" speedFactor="1.00" vaporized=""/>
    <tripinfo id="right_32" depart="145.00" departLane="51o_0" departPos="5.10" departSpeed="0.00" departDelay="0.00" arrival="236.00" arrivalLane="52i_0" arrivalPos="10.00" arrivalSpeed="11.36" duration="91.00" routeLength="1015.10" waitSteps="0" timeLoss="14.81" rerouteNo="0" devices="tripinfo_right_32" vType="typeWE" speedFactor="1.00" vaporized=""/>
    <tripinfo id="left_31" depart="147.00" departLane="52o_0" departPos="5.10" departSpeed="0.00" departDelay="5.00" arrival="238.00" arrivalLane="51i_0" arrivalPos="10.00" arrivalSpeed="11.27" duration="91.00" routeLength="1015.10" waitSteps="0" timeLoss="15.01" rerouteNo="0" devices="tripinfo_left_31" vType="typeWE" speedFactor="1.00" vaporized=""/>
    <tripinfo id="left_33" depart="153.00" departLane="52o_0" departPos="5.10" departSpeed="0.00" departDelay="0.00" arrival="244.00" arrivalLane="51i_0" arrivalPos="10.00" arrivalSpeed="11.63" duration="91.00" routeLength="1015.10" waitSteps="0" timeLoss="14.63" rerouteNo="0" devices="tripinfo_left_33" vType="typeWE" speedFactor="1.00" vaporized=""/>
    <tripinfo id="left_34" depart="158.00" departLane="52o_0" departPos="5.10" departSpeed="0.00" departDelay="2.00" arrival="249.00" arrivalLane="51i_0" arrivalPos="10.00" arrivalSpeed="11.52" duration="91.00" routeLength="1015.10" waitSteps="0" timeLoss="14.37" rerouteNo="0" devices="tripinfo_left_34" vType="typeWE" speedFactor="1.00" vaporized=""/>
    <tripinfo id="left_35" depart="163.00" departLane="52o_0" departPos="5.10" departSpeed="0.00" departDelay="3.00" arrival="254.00" arrivalLane="51i_0" arrivalPos="10.00" arrivalSpeed="11.34" duration="91.00" routeLength="1015.10" waitSteps="0" timeLoss="14.71" rerouteNo="0" devices="tripinfo_left_35" vType="typeWE" speedFactor="1.00" vaporized=""/>
    <tripinfo id="right_37" depart="167.00" departLane="51o_0" departPos="5.10" departSpeed="0.00" departDelay="0.00" arrival="258.00" arrivalLane="52i_0" arrivalPos="10.00" arrivalSpeed="11.37" duration="91.00" routeLength="1015.10" waitSteps="0" timeLoss="14.99" rerouteNo="0" devices="tripinfo_right_37" vType="typeWE" speedFactor="1.00" vaporized=""/>
    <tripinfo id="left_36" depart="171.00" departLane="52o_0" departPos="5.10" departSpeed="0.00" departDelay="7.00" arrival="262.00" arrivalLane="51i_0" arrivalPos="10.00" arrivalSpeed="11.50" duration="91.00" routeLength="1015.10" waitSteps="0" timeLoss="15.01" rerouteNo="0" devices="tripinfo_left_36" vType="typeWE" speedFactor="1.00" vaporized=""/>
    <tripinfo id="right_38" depart="172.00" departLane="51o_0" departPos="5.10" departSpeed="0.00" departDelay="4.00" arrival="263.00" arrivalLane="52i_0" arrivalPos="10.00" arrivalSpeed="11.54" duration="91.00" routeLength="1015.10" waitSteps="0" timeLoss="14.64" rerouteNo="0" devices="tripinfo_right_38" vType="typeWE" speedFactor="1.00" vaporized=""/>
    <tripinfo id="down_26" depart="122.00" departLane="54o_0" departPos="7.10" departSpeed="0.00" departDelay="0.00" arrival="277.00" arrivalLane="53i_0" arrivalPos="10.00" arrivalSpeed="11.71" duration="155.00" routeLength="1013.10" waitSteps="55" timeLoss="83.75" rerouteNo="0" devices="tripinfo_down_26" vType="typeNS" speedFactor="1.00" vaporized=""/>
    <tripinfo id="down_41" depart="172.00" departLane="54o_0" departPos="7.10" departSpeed="0.00" departDelay="0.00" arrival="281.00" arrivalLane="53i_0" arrivalPos="10.00" arrivalSpeed="11.69" duration="109.00" routeLength="1013.10" waitSteps="8" timeLoss="37.28" rerouteNo="0" devices="tripinfo_down_41" vType="typeNS" speedFactor="1.00" vaporized=""/>
    <tripinfo id="right_42" depart="178.00" departLane="51o_0" departPos="5.10" departSpeed="0.00" departDelay="2.00" arrival="295.00" arrivalLane="52i_0" arrivalPos="10.00" arrivalSpeed="10.90" duration="117.00" routeLength="1015.10" waitSteps="16" timeLoss="41.03" rerouteNo="0" devices="tripinfo_right_42" vType="typeWE" speedFactor="1.00" vaporized=""/>
    <tripinfo id="left_39" depart="176.00" departLane="52o_0" departPos="5.10" departSpeed="0.00" departDelay="7.00" arrival="297.00" arrivalLane="51i_0" arrivalPos="10.00" arrivalSpeed="11.57" duration="121.00" routeLength="1015.10" waitSteps="18" timeLoss="44.64" rerouteNo="0" devices="tripinfo_left_39" vType="typeWE" speedFactor="1.00" vaporized=""/>
    <tripinfo id="left_40" depart="181.00" departLane="52o_0" departPos="5.10" departSpeed="0.00" departDelay="9.00" arrival="299.00" arrivalLane="51i_0" arrivalPos="10.00" arrivalSpeed="11.54" duration="118.00" routeLength="1015.10" waitSteps="15" timeLoss="41.46" rerouteNo="0" devices="tripinfo_left_40" vType="typeWE" speedFactor="1.00" vaporized=""/>
    <tripinfo id="right_43" depart="183.00" departLane="51o_0" departPos="5.10" departSpeed="0.00" departDelay="2.00" arrival="299.00" arrivalLane="52i_0" arrivalPos="10.00" arrivalSpeed="11.65" duration="116.00" routeLength="1015.10" waitSteps="13" timeLoss="40.04" rerouteNo="0" devices="tripinfo_right_43" vType="typeWE" speedFactor="1.00" vaporized=""/>
    <tripinfo id="left_45" depart="194.00" departLane="52o_0" departPos="5.10" departSpeed="0.00" departDelay="0.00" arrival="301.00" arrivalLane="51i_0" arrivalPos="10.00" arrivalSpeed="11.25" duration="107.00" routeLength="1015.10" waitSteps="3" timeLoss="31.12" rerouteNo="0" devices="tripinfo_left_45" vType="typeWE" speedFactor="1.00" vaporized=""/>
    <tripinfo id="right_44" depart="188.00" departLane="51o_0" departPos="5.10" departSpeed="0.00" departDelay="5.00" arrival="301.00" arrivalLane="52i_0" arrivalPos="10.00" arrivalSpeed="11.54" duration="113.00" routeLength="1015.10" waitSteps="9" timeLoss="36.74" rerouteNo="0" devices="tripinfo_right_44" vType="typeWE" speedFactor="1.00" vaporized=""/>
    <tripinfo id="left_46" depart="199.00" departLane="52o_0" departPos="5.10" departSpeed="0.00" departDelay="3.00" arrival="303.00" arrivalLane="51i_0" arrivalPos="10.00" arrivalSpeed="11.36" duration="104.00" routeLength="1015.10" waitSteps="0" timeLoss="28.04" rerouteNo="0" devices="tripinfo_left_46" vType="typeWE" speedFactor="1.00" vaporized=""/>
    <tripinfo id="right_48" depart="200.00" departLane="51o_0" departPos="5.10" departSpeed="0.00" departDelay="0.00" arrival="303.00" arrivalLane="52i_0" arrivalPos="10.00" arrivalSpeed="11.60" duration="103.00" routeLength="1015.10" waitSteps="0" timeLoss="26.75" rerouteNo="0" devices="tripinfo_right_48" vType="typeWE" speedFactor="1.00" vaporized=""/>
    <tripinfo id="left_47" depart="205.00" departLane="52o_0" departPos="5.10" departSpeed="0.00" departDelay="6.00" arrival="305.00" arrivalLane="51i_0" arrivalPos="10.00" arrivalSpeed="11.65" duration="100.00" routeLength="1015.10" waitSteps="0" timeLoss="23.88" rerouteNo="0" devices="tripinfo_left_47" vType="typeWE" speedFactor="1.00" vaporized=""/>
    <tripinfo id="left_49" depart="212.00" departLane="52o_0" departPos="5.10" departSpeed="0.00" departDelay="0.00" arrival="307.00" arrivalLane="51i_0" arrivalPos="10.00" arrivalSpeed="11.48" duration="95.00" routeLength="1015.10" waitSteps="0" timeLoss="18.59" rerouteNo="0" devices="tripinfo_left_49" vType="typeWE" speedFactor="1.00" vaporized=""/>
    <tripinfo id="right_50" depart="217.00" departLane="51o_0" departPos="5.10" departSpeed="0.00" departDelay="0.00" arrival="308.00" arrivalLane="52i_0" arrivalPos="10.00" arrivalSpeed="11.34" duration="91.00" routeLength="1015.10" waitSteps="0" timeLoss="14.70" rerouteNo="0" devices="tripinfo_right_50" vType="typeWE" speedFactor="1.00" vaporized=""/>
    <tripinfo id="left_51" depart="219.00" departLane="52o_0" departPos="5.10" departSpeed="0.00" departDelay="0.00" arrival="311.00" arrivalLane="51i_0" arrivalPos="10.00" arrivalSpeed="11.49" duration="92.00" routeLength="1015.10" waitSteps="0" timeLoss="15.65" rerouteNo="0" devices="tripinfo_left_51" vType="typeWE" speedFactor="1.00" vaporized=""/>
    <tripinfo id="right_52" depart="228.00" departLane="51o_0" departPos="5.10" departSpeed="0.00" departDelay="0.00" arrival="318.00" arrivalLane="52i_0" arrivalPos="10.00" arrivalSpeed="11.30" duration="90.00" routeLength="1015.10" waitSteps="0" timeLoss="14.06" rerouteNo="0" devices="tripinfo_right_52" vType="typeWE" speedFactor="1.00" vaporized=""/>
    <tripinfo id="left_53" depart="236.00" departLane="52o_0" departPos="5.10" departSpeed="0.00" departDelay="2.00" arrival="327.00" arrivalLane="51i_0" arrivalPos="10.00" arrivalSpeed="11.41" duration="91.00" routeLength="1015.10" waitSteps="0" timeLoss="14.83" rerouteNo="0" devices="tripinfo_left_53" vType="typeWE" speedFactor="1.00" vaporized=""/>
    <tripinfo id="right_56" depart="240.00" departLane="51o_0" departPos="5.10" departSpeed="0.00" departDelay="0.00" arrival="331.00" arrivalLane="52i_0" arrivalPos="10.00" arrivalSpeed="11.68" duration="91.00" routeLength="1015.10" waitSteps="0" timeLoss="14.94" rerouteNo="0" devices="tripinfo_right_56" vType="typeWE" speedFactor="1.00" vaporized=""/>
    <tripinfo id="left_54" depart="241.00" departLane="52o_0" departPos="5.10" departSpeed="0.00" departDelay="3.00" arrival="332.00" arrivalLane="51i_0" arrivalPos="10.00" arrivalSpeed="11.31" duration="91.00" routeLength="1015.10" waitSteps="0" timeLoss="14.37" rerouteNo="0" devices="tripinfo_left_54" vType="typeWE" speedFactor="1.00" vaporized=""/>
    <tripinfo id="down_55" depart="238.00" departLane="54o_0" departPos="7.10" departSpeed="0.00" departDelay="0.00" arrival="362.00" arrivalLane="53i_0" arrivalPos="10.00" arrivalSpeed="10.85" duration="124.00" routeLength="1013.10" waitSteps="24" timeLoss="52.48" rerouteNo="0" devices="tripinfo_down_55" vType="typeNS" speedFactor="1.00" vaporized=""/>
    <tripinfo id="down_57" depart="244.00" departLane="54o_0" departPos="7.10" departSpeed="0.00" departDelay="2.00" arrival="365.00" arrivalLane="53i_0" arrivalPos="10.00" arrivalSpeed="11.27" duration="121.00" routeLength="1013.10" waitSteps="19" timeLoss="49.07" rerouteNo="0" devices="tripinfo_down_57" vType="typeNS" speedFactor="1.00" vaporized=""/>
    <tripinfo id="down_60" depart="283.00" departLane="54o_0" departPos="7.10" departSpeed="0.00" departDelay="0.00" arrival="373.00" arrivalLane="53i_0" arrivalPos="10.00" arrivalSpeed="11.71" duration="90.00" routeLength="1013.10" waitSteps="0" timeLoss="17.92" rerouteNo="0" devices="tripinfo_down_60" vType="typeNS" speedFactor="1.00" vaporized=""/>
    <tripinfo id="left_58" depart="272.00" departLane="52o_0" departPos="5.10" departSpeed="0.00" departDelay="0.00" arrival="392.00" arrivalLane="51i_0" arrivalPos="10.00" arrivalSpeed="11.70" duration="120.00" routeLength="1015.10" waitSteps="18" timeLoss="44.04" rerouteNo="0" devices="tripinfo_left_58" vType="typeWE" speedFactor="1.00" vaporized=""/>
    <tripinfo id="right_61" depart="284.00" departLane="51o_0" departPos="5.10" departSpeed="0.00" departDelay="0.00" arrival="393.00" arrivalLane="52i_0" arrivalPos="10.00" arrivalSpeed="11.35" duration="109.00" routeLength="1015.10" waitSteps="6" timeLoss="32.36" rerouteNo="0" devices="tripinfo_right_61" vType="typeWE" speedFactor="1.00" vaporized=""/>
    <tripinfo id="right_62" depart="290.00" departLane="51o_0" departPos="5.10" departSpeed="0.00" departDelay="4.00" arrival="394.00" arrivalLane="52i_0" arrivalPos="10.00" arrivalSpeed="11.84" duration="104.00" routeLength="1015.10" waitSteps="0" timeLoss="28.17" rerouteNo="0" devices="tripinfo_right_62" vType="typeWE" speedFactor="1.00" vaporized=""/>
    <tripinfo id="left_59" depart="277.00" departLane="52o_0" departPos="5.10" departSpeed="0.00" departDelay="2.00" arrival="395.00" arrivalLane="51i_0" arrivalPos="10.00" arrivalSpeed="11.48" duration="118.00" routeLength="1015.10" waitSteps="14" timeLoss="41.44" rerouteNo="0" devices="tripinfo_left_59" vType="typeWE" speedFactor="1.00" vaporized=""/>
    <tripinfo id="right_63" depart="299.00" departLane="51o_0" departPos="5.10" departSpeed="0.00" departDelay="11.00" arrival="397.00" arrivalLane="52i_0" arrivalPos="10.00" arrivalSpeed="11.59" duration="98.00" routeLength="1015.10" waitSteps="0" timeLoss="21.70" rerouteNo="0" devices="tripinfo_right_63" vType="typeWE" speedFactor="1.00" vaporized=""/>
    <tripinfo id="right_64" depart="307.00" departLane="51o_0" departPos="5.10" departSpeed="0.00" departDelay="16.00" arrival="399.00" arrivalLane="52i_0" arrivalPos="10.00" arrivalSpeed="11.53" duration="92.00" routeLength="1015.10" waitSteps="0" timeLoss="15.41" rerouteNo="0" devices="tripinfo_right_64" vType="typeWE" speedFactor="1.00" vaporized=""/>
    <tripinfo id="right_65" depart="312.00" departLane="51o_0" departPos="5.10" departSpeed="0.00" departDelay="18.00" arrival="404.00" arrivalLane="52i_0" arrivalPos="10.00" arrivalSpeed="11.71" duration="92.00" routeLength="1015.10" waitSteps="0" timeLoss="15.17" rerouteNo="0" devices="tripinfo_right_65" vType="typeWE" speedFactor="1.00" vaporized=""/>
    <tripinfo id="right_68" depart="322.00" departLane="51o_0" departPos="5.10" departSpeed="0.00" departDelay="0.00" arrival="413.00" arrivalLane="52i_0" arrivalPos="10.00" arrivalSpeed="11.50" duration="91.00" routeLength="1015.10" waitSteps="0" timeLoss="14.87" rerouteNo="0" devices="tripinfo_right_68" vType="typeWE" speedFactor="1.00" vaporized=""/>
    <tripinfo id="down_66" depart="302.00" departLane="54o_0" departPos="7.10" departSpeed="0.00" departDelay="0.00" arrival="435.00" arrivalLane="53i_0" arrivalPos="10.00" arrivalSpeed="11.39" duration="133.00" routeLength="1013.10" waitSteps="32" timeLoss="61.48" rerouteNo="0" devices="tripinfo_down_66" vType="typeNS" speedFactor="1.00" vaporized=""/>
    <tripinfo id="down_67" depart="318.00" departLane="54o_0" departPos="7.10" departSpeed="0.00" departDelay="0.00" arrival="437.00" arrivalLane="53i_0" arrivalPos="10.00" arrivalSpeed="11.45" duration="119.00" routeLength="1013.10" waitSteps="16" timeLoss="47.48" rerouteNo="0" devices="tripinfo_down_67" vType="typeNS" speedFactor="1.00" vaporized=""/>
    <tripinfo id="down_69" depart="331.00" departLane="54o_0" departPos="7.10" departSpeed="0.00" departDelay="0.00" arrival="440.00" arrivalLane="53i_0" arrivalPos="10.00" arrivalSpeed="11.38" duration="109.00" routeLength="1013.10" waitSteps="6" timeLoss="36.98" rerouteNo="0" devices="tripinfo_down_69" vType="typeNS" speedFactor="1.00" vaporized=""/>
    <tripinfo id="right_72" depart="342.00" departLane="51o_0" departPos="5.10" departSpeed="0.00" departDelay="0.00" arrival="452.00" arrivalLane="52i_0" arrivalPos="10.00" arrivalSpeed="11.28" duration="110.00" routeLength="1015.10" waitSteps="7" timeLoss="34.15" rerouteNo="0" devices="tripinfo_right_72" vType="typeWE" speedFactor="1.00" vaporized=""/>
    <tripinfo id="left_71" depart="339.00" departLane="52o_0" departPos="5.10" departSpeed="0.00" departDelay="0.00" arrival="452.00" arrivalLane="51i_0" arrivalPos="10.00" arrivalSpeed="11.65" duration="113.00" routeLength="1015.10" waitSteps="11" timeLoss="36.88" rerouteNo="0" devices="tripinfo_left_71" vType="typeWE" speedFactor="1.00" vaporized=""/>
    <tripinfo id="right_77" depart="354.00" departLane="51o_0" departPos="5.10" departSpeed="0.00" departDelay="0.00" arrival="455.00" arrivalLane="52i_0" arrivalPos="10.00" arrivalSpeed="11.66" duration="101.00" routeLength="1015.10" waitSteps="0" timeLoss="24.44" rerouteNo="0" devices="tripinfo_right_77" vType="typeWE" speedFactor="1.00" vaporized=""/>
    <tripinfo id="left_73" depart="344.00" departLane="52o_0" departPos="5.10" departSpeed="0.00" departDelay="0.00" arrival="455.00" arrivalLane="51i_0" arrivalPos="10.00" arrivalSpeed="11.53" duration="111.00" routeLength="1015.10" waitSteps="6" timeLoss="34.44" rerouteNo="0" devices="tripinfo_left_73" vType="typeWE" speedFactor="1.00" vaporized=""/>
    <tripinfo id="left_75" depart="350.00" departLane="52o_0" departPos="5.10" departSpeed="0.00" departDelay="4.00" arrival="457.00" arrivalLane="51i_0" arrivalPos="10.00" arrivalSpeed="11.53" duration="107.00" routeLength="1015.10" waitSteps="4" timeLoss="30.70" rerouteNo="0" devices="tripinfo_left_75" vType="typeWE" speedFactor="1.00" vaporized=""/>
    <tripinfo id="down_70" depart="337.00" departLane="54o_0" departPos="7.10" departSpeed="0.00" departDelay="0.00" arrival="470.00" arrivalLane="53i_0" arrivalPos="10.00" arrivalSpeed="11.48" duration="133.00" routeLength="1013.10" waitSteps="22" timeLoss="61.82" rerouteNo="0" devices="tripinfo_down_70" vType="typeNS" speedFactor="1.00" vaporized=""/>
    <tripinfo id="down_74" depart="344.00" departLane="54o_0" departPos="7.10" departSpeed="0.00" departDelay="0.00" arrival="473.00" arrivalLane="53i_0" arrivalPos="10.00" arrivalSpeed="11.33" duration="129.00" routeLength="1013.10" waitSteps="19" timeLoss="57.36" rerouteNo="0" devices="tripinfo_down_74" vType="typeNS" speedFactor="1.00" vaporized=""/>
    <tripinfo id="down_76" depart="350.00" departLane="54o_0" departPos="7.10" departSpeed="0.00" departDelay="1.00" arrival="475.00" arrivalLane="53i_0" arrivalPos="10.00" arrivalSpeed="11.26" duration="125.00" routeLength="1013.10" waitSteps="18" timeLoss="53.38" rerouteNo="0" devices="tripinfo_down_76" vType="typeNS" speedFactor="1.00" vaporized=""/>
    <tripinfo id="down_79" depart="377.00" departLane="54o_0" departPos="7.10" departSpeed="0.00" departDelay="0.00" arrival="478.00" arrivalLane="53i_0" arrivalPos="10.00" arrivalSpeed="11.41" duration="101.00" routeLength="1013.10" waitSteps="0" timeLoss="29.05" rerouteNo="0" devices="tripinfo_down_79" vType="typeNS" speedFactor="1.00" vaporized=""/>
    <tripinfo id="down_80" depart="383.00" departLane="54o_0" departPos="7.10" departSpeed="0.00" departDelay="4.00" arrival="480.00" arrivalLane="53i_0" arrivalPos="10.00" arrivalSpeed="11.49" duration="97.00" routeLength="1013.10" waitSteps="0" timeLoss="24.94" rerouteNo="0" devices="tripinfo_down_80" vType="typeNS" speedFactor="1.00" vaporized=""/>
    <tripinfo id="down_86" depart="394.00" departLane="54o_0" departPos="7.10" departSpeed="0.00" departDelay="0.00" arrival="484.00" arrivalLane="53i_0" arrivalPos="10.00" arrivalSpeed="11.50" duration="90.00" routeLength="1013.10" waitSteps="0" timeLoss="17.70" rerouteNo="0" devices="tripinfo_down_86" vType="typeNS" speedFactor="1.00" vaporized=""/>