<?xml version="1.0" encoding="UTF-8"?>

<!-- generated on Sun Mar 11 22:24:35 2018 by SUMO Version 0.32.0
<?xml version="1.0" encoding="UTF-8"?>

<configuration xmlns:xsi="http://www.w3.org/2001/XMLSchema-instance" xsi:noNamespaceSchemaLocation="http://sumo.dlr.de/xsd/sumoConfiguration.xsd">

    <input>
        <net-file value="data/cross.net.xml"/>
        <route-files value="data/cross.rou.xml"/>
        <additional-files value="data/cross.det.xml,data/cross.det2.xml"/>
    </input>

    <output>
        <tripinfo-output value="qleepisode9_tripinfo.xml"/>
    </output>

    <time>
        <begin value="0"/>
    </time>

    <report>
        <verbose value="true"/>
        <error-log value="errors"/>
        <no-step-log value="true"/>
    </report>

    <traci_server>
        <remote-port value="49661"/>
    </traci_server>

</configuration>
-->

<tripinfos xmlns:xsi="http://www.w3.org/2001/XMLSchema-instance" xsi:noNamespaceSchemaLocation="http://sumo.dlr.de/xsd/tripinfo_file.xsd">
    <tripinfo id="left_0" depart="0.00" departLane="52o_0" departPos="5.10" departSpeed="0.00" departDelay="0.00" arrival="91.00" arrivalLane="51i_0" arrivalPos="10.00" arrivalSpeed="11.49" duration="91.00" routeLength="1015.10" waitSteps="0" timeLoss="14.89" rerouteNo="0" devices="tripinfo_left_0" vType="typeWE" speedFactor="1.00" vaporized=""/>
    <tripinfo id="right_2" depart="3.00" departLane="51o_0" departPos="5.10" departSpeed="0.00" departDelay="0.00" arrival="94.00" arrivalLane="52i_0" arrivalPos="10.00" arrivalSpeed="11.48" duration="91.00" routeLength="1015.10" waitSteps="0" timeLoss="14.41" rerouteNo="0" devices="tripinfo_right_2" vType="typeWE" speedFactor="1.00" vaporized=""/>
    <tripinfo id="left_1" depart="5.00" departLane="52o_0" departPos="5.10" departSpeed="0.00" departDelay="3.00" arrival="97.00" arrivalLane="51i_0" arrivalPos="10.00" arrivalSpeed="11.37" duration="92.00" routeLength="1015.10" waitSteps="0" timeLoss="15.35" rerouteNo="0" devices="tripinfo_left_1" vType="typeWE" speedFactor="1.00" vaporized=""/>
    <tripinfo id="right_3" depart="8.00" departLane="51o_0" departPos="5.10" departSpeed="0.00" departDelay="4.00" arrival="99.00" arrivalLane="52i_0" arrivalPos="10.00" arrivalSpeed="11.75" duration="91.00" routeLength="1015.10" waitSteps="0" timeLoss="14.83" rerouteNo="0" devices="tripinfo_right_3" vType="typeWE" speedFactor="1.00" vaporized=""/>
    <tripinfo id="left_4" depart="10.00" departLane="52o_0" departPos="5.10" departSpeed="0.00" departDelay="4.00" arrival="101.00" arrivalLane="51i_0" arrivalPos="10.00" arrivalSpeed="11.55" duration="91.00" routeLength="1015.10" waitSteps="0" timeLoss="14.76" rerouteNo="0" devices="tripinfo_left_4" vType="typeWE" speedFactor="1.00" vaporized=""/>
    <tripinfo id="right_5" depart="13.00" departLane="51o_0" departPos="5.10" departSpeed="0.00" departDelay="4.00" arrival="104.00" arrivalLane="52i_0" arrivalPos="10.00" arrivalSpeed="11.59" duration="91.00" routeLength="1015.10" waitSteps="0" timeLoss="14.30" rerouteNo="0" devices="tripinfo_right_5" vType="typeWE" speedFactor="1.00" vaporized=""/>
    <tripinfo id="down_6" depart="13.00" departLane="54o_0" departPos="7.10" departSpeed="0.00" departDelay="0.00" arrival="123.00" arrivalLane="53i_0" arrivalPos="10.00" arrivalSpeed="11.76" duration="110.00" routeLength="1013.10" waitSteps="9" timeLoss="38.35" rerouteNo="0" devices="tripinfo_down_6" vType="typeNS" speedFactor="1.00" vaporized=""/>
    <tripinfo id="down_8" depart="29.00" departLane="54o_0" departPos="7.10" departSpeed="0.00" departDelay="0.00" arrival="125.00" arrivalLane="53i_0" arrivalPos="10.00" arrivalSpeed="11.45" duration="96.00" routeLength="1013.10" waitSteps="0" timeLoss="24.74" rerouteNo="0" devices="tripinfo_down_8" vType="typeNS" speedFactor="1.00" vaporized=""/>
    <tripinfo id="right_12" depart="42.00" departLane="51o_0" departPos="5.10" departSpeed="0.00" departDelay="0.00" arrival="133.00" arrivalLane="52i_0" arrivalPos="10.00" arrivalSpeed="11.43" duration="91.00" routeLength="1015.10" waitSteps="0" timeLoss="14.93" rerouteNo="0" devices="tripinfo_right_12" vType="typeWE" speedFactor="1.00" vaporized=""/>
    <tripinfo id="left_7" depart="22.00" departLane="52o_0" departPos="5.10" departSpeed="0.00" departDelay="0.00" arrival="141.00" arrivalLane="51i_0" arrivalPos="10.00" arrivalSpeed="11.50" duration="119.00" routeLength="1015.10" waitSteps="18" timeLoss="42.76" rerouteNo="0" devices="tripinfo_left_7" vType="typeWE" speedFactor="1.00" vaporized=""/>
    <tripinfo id="left_9" depart="31.00" departLane="52o_0" departPos="5.10" departSpeed="0.00" departDelay="0.00" arrival="143.00" arrivalLane="51i_0" arrivalPos="10.00" arrivalSpeed="11.45" duration="112.00" routeLength="1015.10" waitSteps="9" timeLoss="35.55" rerouteNo="0" devices="tripinfo_left_9" vType="typeWE" speedFactor="1.00" vaporized=""/>
    <tripinfo id="left_10" depart="36.00" departLane="52o_0" departPos="5.10" departSpeed="0.00" departDelay="3.00" arrival="145.00" arrivalLane="51i_0" arrivalPos="10.00" arrivalSpeed="11.27" duration="109.00" routeLength="1015.10" waitSteps="6" timeLoss="32.42" rerouteNo="0" devices="tripinfo_left_10" vType="typeWE" speedFactor="1.00" vaporized=""/>
    <tripinfo id="right_15" depart="55.00" departLane="51o_0" departPos="5.10" departSpeed="0.00" departDelay="0.00" arrival="146.00" arrivalLane="52i_0" arrivalPos="10.00" arrivalSpeed="11.64" duration="91.00" routeLength="1015.10" waitSteps="0" timeLoss="14.90" rerouteNo="0" devices="tripinfo_right_15" vType="typeWE" speedFactor="1.00" vaporized=""/>
    <tripinfo id="left_11" depart="41.00" departLane="52o_0" departPos="5.10" departSpeed="0.00" departDelay="0.00" arrival="147.00" arrivalLane="51i_0" arrivalPos="10.00" arrivalSpeed="11.55" duration="106.00" routeLength="1015.10" waitSteps="2" timeLoss="29.57" rerouteNo="0" devices="tripinfo_left_11" vType="typeWE" speedFactor="1.00" vaporized=""/>
    <tripinfo id="left_13" depart="46.00" departLane="52o_0" departPos="5.10" departSpeed="0.00" departDelay="1.00" arrival="149.00" arrivalLane="51i_0" arrivalPos="10.00" arrivalSpeed="11.70" duration="103.00" routeLength="1015.10" waitSteps="0" timeLoss="26.38" rerouteNo="0" devices="tripinfo_left_13" vType="typeWE" speedFactor="1.00" vaporized=""/>
    <tripinfo id="left_14" depart="53.00" departLane="52o_0" departPos="5.10" departSpeed="0.00" departDelay="0.00" arrival="150.00" arrivalLane="51i_0" arrivalPos="10.00" arrivalSpeed="10.83" duration="97.00" routeLength="1015.10" waitSteps="0" timeLoss="20.95" rerouteNo="0" devices="tripinfo_left_14" vType="typeWE" speedFactor="1.00" vaporized=""/>
    <tripinfo id="right_16" depart="61.00" departLane="51o_0" departPos="5.10" departSpeed="0.00" departDelay="0.00" arrival="153.00" arrivalLane="52i_0" arrivalPos="10.00" arrivalSpeed="11.65" duration="92.00" routeLength="1015.10" waitSteps="0" timeLoss="15.75" rerouteNo="0" devices="tripinfo_right_16" vType="typeWE" speedFactor="1.00" vaporized=""/>
    <tripinfo id="right_17" depart="69.00" departLane="51o_0" departPos="5.10" departSpeed="0.00" departDelay="0.00" arrival="160.00" arrivalLane="52i_0" arrivalPos="10.00" arrivalSpeed="11.48" duration="91.00" routeLength="1015.10" waitSteps="0" timeLoss="14.71" rerouteNo="0" devices="tripinfo_right_17" vType="typeWE" speedFactor="1.00" vaporized=""/>
    <tripinfo id="left_19" depart="85.00" departLane="52o_0" departPos="5.10" departSpeed="0.00" departDelay="0.00" arrival="176.00" arrivalLane="51i_0" arrivalPos="10.00" arrivalSpeed="11.30" duration="91.00" routeLength="1015.10" waitSteps="0" timeLoss="14.72" rerouteNo="0" devices="tripinfo_left_19" vType="typeWE" speedFactor="1.00" vaporized=""/>
    <tripinfo id="right_18" depart="84.00" departLane="51o_0" departPos="5.10" departSpeed="0.00" departDelay="0.00" arrival="176.00" arrivalLane="52i_0" arrivalPos="10.00" arrivalSpeed="11.48" duration="92.00" routeLength="1015.10" waitSteps="0" timeLoss="15.74" rerouteNo="0" devices="tripinfo_right_18" vType="typeWE" speedFactor="1.00" vaporized=""/>
    <tripinfo id="left_23" depart="99.00" departLane="52o_0" departPos="5.10" departSpeed="0.00" departDelay="0.00" arrival="190.00" arrivalLane="51i_0" arrivalPos="10.00" arrivalSpeed="11.07" duration="91.00" routeLength="1015.10" waitSteps="0" timeLoss="14.77" rerouteNo="0" devices="tripinfo_left_23" vType="typeWE" speedFactor="1.00" vaporized=""/>
    <tripinfo id="down_20" depart="89.00" departLane="54o_0" departPos="7.10" departSpeed="0.00" departDelay="0.00" arrival="206.00" arrivalLane="53i_0" arrivalPos="10.00" arrivalSpeed="11.41" duration="117.00" routeLength="1013.10" waitSteps="16" timeLoss="45.44" rerouteNo="0" devices="tripinfo_down_20" vType="typeNS" speedFactor="1.00" vaporized=""/>
    <tripinfo id="down_21" depart="96.00" departLane="54o_0" departPos="7.10" departSpeed="0.00" departDelay="0.00" arrival="210.00" arrivalLane="53i_0" arrivalPos="10.00" arrivalSpeed="11.53" duration="114.00" routeLength="1013.10" waitSteps="12" timeLoss="42.05" rerouteNo="0" devices="tripinfo_down_21" vType="typeNS" speedFactor="1.00" vaporized=""/>
    <tripinfo id="down_26" depart="122.00" departLane="54o_0" departPos="7.10" departSpeed="0.00" departDelay="0.00" arrival="212.00" arrivalLane="53i_0" arrivalPos="10.00" arrivalSpeed="11.52" duration="90.00" routeLength="1013.10" waitSteps="0" timeLoss="18.06" rerouteNo="0" devices="tripinfo_down_26" vType="typeNS" speedFactor="1.00" vaporized=""/>
    <tripinfo id="left_28" depart="131.00" departLane="52o_0" departPos="5.10" departSpeed="0.00" departDelay="0.00" arrival="222.00" arrivalLane="51i_0" arrivalPos="10.00" arrivalSpeed="11.84" duration="91.00" routeLength="1015.10" waitSteps="0" timeLoss="14.69" rerouteNo="0" devices="tripinfo_left_28" vType="typeWE" speedFactor="1.00" vaporized=""/>
    <tripinfo id="right_22" depart="101.00" departLane="51o_0" departPos="5.10" departSpeed="0.00" departDelay="2.00" arrival="224.00" arrivalLane="52i_0" arrivalPos="10.00" arrivalSpeed="11.73" duration="123.00" routeLength="1015.10" waitSteps="19" timeLoss="47.02" rerouteNo="0" devices="tripinfo_right_22" vType="typeWE" speedFactor="1.00" vaporized=""/>
    <tripinfo id="left_29" depart="136.00" departLane="52o_0" departPos="5.10" departSpeed="0.00" departDelay="1.00" arrival="227.00" arrivalLane="51i_0" arrivalPos="10.00" arrivalSpeed="11.23" duration="91.00" routeLength="1015.10" waitSteps="0" timeLoss="14.70" rerouteNo="0" devices="tripinfo_left_29" vType="typeWE" speedFactor="1.00" vaporized=""/>
    <tripinfo id="right_24" depart="108.00" departLane="51o_0" departPos="5.10" departSpeed="0.00" departDelay="0.00" arrival="227.00" arrivalLane="52i_0" arrivalPos="10.00" arrivalSpeed="11.70" duration="119.00" routeLength="1015.10" waitSteps="17" timeLoss="42.43" rerouteNo="0" devices="tripinfo_right_24" vType="typeWE" speedFactor="1.00" vaporized=""/>
    <tripinfo id="right_25" depart="114.00" departLane="51o_0" departPos="5.10" departSpeed="0.00" departDelay="0.00" arrival="229.00" arrivalLane="52i_0" arrivalPos="10.00" arrivalSpeed="11.35" duration="115.00" routeLength="1015.10" waitSteps="12" timeLoss="38.52" rerouteNo="0" devices="tripinfo_right_25" vType="typeWE" speedFactor="1.00" vaporized=""/>
    <tripinfo id="right_27" depart="125.00" departLane="51o_0" departPos="5.10" departSpeed="0.00" departDelay="0.00" arrival="231.00" arrivalLane="52i_0" arrivalPos="10.00" arrivalSpeed="11.60" duration="106.00" routeLength="1015.10" waitSteps="0" timeLoss="29.64" rerouteNo="0" devices="tripinfo_right_27" vType="typeWE" speedFactor="1.00" vaporized=""/>
    <tripinfo id="left_30" depart="141.00" departLane="52o_0" departPos="5.10" departSpeed="0.00" departDelay="3.00" arrival="233.00" arrivalLane="51i_0" arrivalPos="10.00" arrivalSpeed="11.57" duration="92.00" routeLength="1015.10" waitSteps="0" timeLoss="15.73" rerouteNo="0" devices="tripinfo_left_30" vType="typeWE" speedFactor="1.00" vaporized=""/>
    <tripinfo id="left_31" depart="146.00" departLane="52o_0" departPos="5.10" departSpeed="0.00" departDelay="4.00" arrival="239.00" arrivalLane="51i_0" arrivalPos="10.00" arrivalSpeed="11.65" duration="93.00" routeLength="1015.10" waitSteps="0" timeLoss="16.59" rerouteNo="0" devices="tripinfo_left_31" vType="typeWE" speedFactor="1.00" vaporized=""/>
    <tripinfo id="right_32" depart="150.00" departLane="51o_0" departPos="5.10" departSpeed="0.00" departDelay="5.00" arrival="241.00" arrivalLane="52i_0" arrivalPos="10.00" arrivalSpeed="11.54" duration="91.00" routeLength="1015.10" waitSteps="0" timeLoss="14.76" rerouteNo="0" devices="tripinfo_right_32" vType="typeWE" speedFactor="1.00" vaporized=""/>
    <tripinfo id="left_33" depart="153.00" departLane="52o_0" departPos="5.10" departSpeed="0.00" departDelay="0.00" arrival="245.00" arrivalLane="51i_0" arrivalPos="10.00" arrivalSpeed="11.55" duration="92.00" routeLength="1015.10" waitSteps="0" timeLoss="15.19" rerouteNo="0" devices="tripinfo_left_33" vType="typeWE" speedFactor="1.00" vaporized=""/>
    <tripinfo id="left_34" depart="160.00" departLane="52o_0" departPos="5.10" departSpeed="0.00" departDelay="4.00" arrival="251.00" arrivalLane="51i_0" arrivalPos="10.00" arrivalSpeed="11.71" duration="91.00" routeLength="1015.10" waitSteps="0" timeLoss="14.65" rerouteNo="0" devices="tripinfo_left_34" vType="typeWE" speedFactor="1.00" vaporized=""/>
    <tripinfo id="left_35" depart="165.00" departLane="52o_0" departPos="5.10" departSpeed="0.00" departDelay="5.00" arrival="256.00" arrivalLane="51i_0" arrivalPos="10.00" arrivalSpeed="11.41" duration="91.00" routeLength="1015.10" waitSteps="0" timeLoss="14.71" rerouteNo="0" devices="tripinfo_left_35" vType="typeWE" speedFactor="1.00" vaporized=""/>
    <tripinfo id="right_37" depart="167.00" departLane="51o_0" departPos="5.10" departSpeed="0.00" departDelay="0.00" arrival="259.00" arrivalLane="52i_0" arrivalPos="10.00" arrivalSpeed="11.35" duration="92.00" routeLength="1015.10" waitSteps="0" timeLoss="15.29" rerouteNo="0" devices="tripinfo_right_37" vType="typeWE" speedFactor="1.00" vaporized=""/>
    <tripinfo id="left_36" depart="170.00" departLane="52o_0" departPos="5.10" departSpeed="0.00" departDelay="6.00" arrival="262.00" arrivalLane="51i_0" arrivalPos="10.00" arrivalSpeed="11.26" duration="92.00" routeLength="1015.10" waitSteps="0" timeLoss="15.47" rerouteNo="0" devices="tripinfo_left_36" vType="typeWE" speedFactor="1.00" vaporized=""/>
    <tripinfo id="right_38" depart="172.00" departLane="51o_0" departPos="5.10" departSpeed="0.00" departDelay="4.00" arrival="264.00" arrivalLane="52i_0" arrivalPos="10.00" arrivalSpeed="11.19" duration="92.00" routeLength="1015.10" waitSteps="0" timeLoss="15.80" rerouteNo="0" devices="tripinfo_right_38" vType="typeWE" speedFactor="1.00" vaporized=""/>
    <tripinfo id="down_41" depart="172.00" departLane="54o_0" departPos="7.10" departSpeed="0.00" departDelay="0.00" arrival="278.00" arrivalLane="53i_0" arrivalPos="10.00" arrivalSpeed="10.97" duration="106.00" routeLength="1013.10" waitSteps="6" timeLoss="34.47" rerouteNo="0" devices="tripinfo_down_41" vType="typeNS" speedFactor="1.00" vaporized=""/>
    <tripinfo id="left_39" depart="176.00" departLane="52o_0" departPos="5.10" departSpeed="0.00" departDelay="7.00" arrival="295.00" arrivalLane="51i_0" arrivalPos="10.00" arrivalSpeed="11.56" duration="119.00" routeLength="1015.10" waitSteps="19" timeLoss="43.22" rerouteNo="0" devices="tripinfo_left_39" vType="typeWE" speedFactor="1.00" vaporized=""/>
    <tripinfo id="right_42" depart="177.00" departLane="51o_0" departPos="5.10" departSpeed="0.00" departDelay="1.00" arrival="297.00" arrivalLane="52i_0" arrivalPos="10.00" arrivalSpeed="11.58" duration="120.00" routeLength="1015.10" waitSteps="16" timeLoss="43.76" rerouteNo="0" devices="tripinfo_right_42" vType="typeWE" speedFactor="1.00" vaporized=""/>
    <tripinfo id="left_40" depart="181.00" departLane="52o_0" departPos="5.10" departSpeed="0.00" departDelay="9.00" arrival="298.00" arrivalLane="51i_0" arrivalPos="10.00" arrivalSpeed="11.50" duration="117.00" routeLength="1015.10" waitSteps="16" timeLoss="40.77" rerouteNo="0" devices="tripinfo_left_40" vType="typeWE" speedFactor="1.00" vaporized=""/>
    <tripinfo id="right_43" depart="182.00" departLane="51o_0" departPos="5.10" departSpeed="0.00" departDelay="1.00" arrival="299.00" arrivalLane="52i_0" arrivalPos="10.00" arrivalSpeed="11.59" duration="117.00" routeLength="1015.10" waitSteps="13" timeLoss="40.80" rerouteNo="0" devices="tripinfo_right_43" vType="typeWE" speedFactor="1.00" vaporized=""/>
    <tripinfo id="left_45" depart="194.00" departLane="52o_0" departPos="5.10" departSpeed="0.00" departDelay="0.00" arrival="301.00" arrivalLane="51i_0" arrivalPos="10.00" arrivalSpeed="11.47" duration="107.00" routeLength="1015.10" waitSteps="1" timeLoss="30.55" rerouteNo="0" devices="tripinfo_left_45" vType="typeWE" speedFactor="1.00" vaporized=""/>
    <tripinfo id="right_44" depart="187.00" departLane="51o_0" departPos="5.10" departSpeed="0.00" departDelay="4.00" arrival="301.00" arrivalLane="52i_0" arrivalPos="10.00" arrivalSpeed="11.42" duration="114.00" routeLength="1015.10" waitSteps="9" timeLoss="37.55" rerouteNo="0" devices="tripinfo_right_44" vType="typeWE" speedFactor="1.00" vaporized=""/>
    <tripinfo id="left_46" depart="199.00" departLane="52o_0" departPos="5.10" departSpeed="0.00" departDelay="3.00" arrival="303.00" arrivalLane="51i_0" arrivalPos="10.00" arrivalSpeed="11.48" duration="104.00" routeLength="1015.10" waitSteps="0" timeLoss="27.40" rerouteNo="0" devices="tripinfo_left_46" vType="typeWE" speedFactor="1.00" vaporized=""/>
    <tripinfo id="right_48" depart="200.00" departLane="51o_0" departPos="5.10" departSpeed="0.00" departDelay="0.00" arrival="303.00" arrivalLane="52i_0" arrivalPos="10.00" arrivalSpeed="11.45" duration="103.00" routeLength="1015.10" waitSteps="0" timeLoss="26.71" rerouteNo="0" devices="tripinfo_right_48" vType="typeWE" speedFactor="1.00" vaporized=""/>
    <tripinfo id="left_47" depart="204.00" departLane="52o_0" departPos="5.10" departSpeed="0.00" departDelay="5.00" arrival="304.00" arrivalLane="51i_0" arrivalPos="10.00" arrivalSpeed="11.43" duration="100.00" routeLength="1015.10" waitSteps="0" timeLoss="24.24" rerouteNo="0" devices="tripinfo_left_47" vType="typeWE" speedFactor="1.00" vaporized=""/>
    <tripinfo id="left_49" depart="212.00" departLane="52o_0" departPos="5.10" departSpeed="0.00" departDelay="0.00" arrival="306.00" arrivalLane="51i_0" arrivalPos="10.00" arrivalSpeed="11.59" duration="94.00" routeLength="1015.10" waitSteps="0" timeLoss="17.96" rerouteNo="0" devices="tripinfo_left_49" vType="typeWE" speedFactor="1.00" vaporized=""/>
    <tripinfo id="left_51" depart="219.00" departLane="52o_0" departPos="5.10" departSpeed="0.00" departDelay="0.00" arrival="310.00" arrivalLane="51i_0" arrivalPos="10.00" arrivalSpeed="11.29" duration="91.00" routeLength="1015.10" waitSteps="0" timeLoss="14.52" rerouteNo="0" devices="tripinfo_left_51" vType="typeWE" speedFactor="1.00" vaporized=""/>
    <tripinfo id="right_50" depart="217.00" departLane="51o_0" departPos="5.10" departSpeed="0.00" departDelay="0.00" arrival="310.00" arrivalLane="52i_0" arrivalPos="10.00" arrivalSpeed="11.55" duration="93.00" routeLength="1015.10" waitSteps="0" timeLoss="16.18" rerouteNo="0" devices="tripinfo_right_50" vType="typeWE" speedFactor="1.00" vaporized=""/>
    <tripinfo id="right_52" depart="228.00" departLane="51o_0" departPos="5.10" departSpeed="0.00" departDelay="0.00" arrival="319.00" arrivalLane="52i_0" arrivalPos="10.00" arrivalSpeed="11.50" duration="91.00" routeLength="1015.10" waitSteps="0" timeLoss="14.82" rerouteNo="0" devices="tripinfo_right_52" vType="typeWE" speedFactor="1.00" vaporized=""/>
    <tripinfo id="left_53" depart="234.00" departLane="52o_0" departPos="5.10" departSpeed="0.00" departDelay="0.00" arrival="324.00" arrivalLane="51i_0" arrivalPos="10.00" arrivalSpeed="11.46" duration="90.00" routeLength="1015.10" waitSteps="0" timeLoss="13.75" rerouteNo="0" devices="tripinfo_left_53" vType="typeWE" speedFactor="1.00" vaporized=""/>
    <tripinfo id="right_56" depart="240.00" departLane="51o_0" departPos="5.10" departSpeed="0.00" departDelay="0.00" arrival="331.00" arrivalLane="52i_0" arrivalPos="10.00" arrivalSpeed="11.42" duration="91.00" routeLength="1015.10" waitSteps="0" timeLoss="14.74" rerouteNo="0" devices="tripinfo_right_56" vType="typeWE" speedFactor="1.00" vaporized=""/>
    <tripinfo id="left_54" depart="241.00" departLane="52o_0" departPos="5.10" departSpeed="0.00" departDelay="3.00" arrival="332.00" arrivalLane="51i_0" arrivalPos="10.00" arrivalSpeed="11.59" duration="91.00" routeLength="1015.10" waitSteps="0" timeLoss="14.77" rerouteNo="0" devices="tripinfo_left_54" vType="typeWE" speedFactor="1.00" vaporized=""/>
    <tripinfo id="down_55" depart="238.00" departLane="54o_0" departPos="7.10" departSpeed="0.00" departDelay="0.00" arrival="350.00" arrivalLane="53i_0" arrivalPos="10.00" arrivalSpeed="11.37" duration="112.00" routeLength="1013.10" waitSteps="12" timeLoss="40.61" rerouteNo="0" devices="tripinfo_down_55" vType="typeNS" speedFactor="1.00" vaporized=""/>
    <tripinfo id="down_57" depart="244.00" departLane="54o_0" departPos="7.10" departSpeed="0.00" departDelay="2.00" arrival="353.00" arrivalLane="53i_0" arrivalPos="10.00" arrivalSpeed="11.35" duration="109.00" routeLength="1013.10" waitSteps="8" timeLoss="37.47" rerouteNo="0" devices="tripinfo_down_57" vType="typeNS" speedFactor="1.00" vaporized=""/>
    <tripinfo id="left_58" depart="272.00" departLane="52o_0" departPos="5.10" departSpeed="0.00" departDelay="0.00" arrival="363.00" arrivalLane="51i_0" arrivalPos="10.00" arrivalSpeed="11.59" duration="91.00" routeLength="1015.10" waitSteps="0" timeLoss="14.73" rerouteNo="0" devices="tripinfo_left_58" vType="typeWE" speedFactor="1.00" vaporized=""/>
    <tripinfo id="left_59" depart="277.00" departLane="52o_0" departPos="5.10" departSpeed="0.00" departDelay="2.00" arrival="369.00" arrivalLane="51i_0" arrivalPos="10.00" arrivalSpeed="11.53" duration="92.00" routeLength="1015.10" waitSteps="0" timeLoss="15.52" rerouteNo="0" devices="tripinfo_left_59" vType="typeWE" speedFactor="1.00" vaporized=""/>
    <tripinfo id="right_61" depart="284.00" departLane="51o_0" departPos="5.10" departSpeed="0.00" departDelay="0.00" arrival="375.00" arrivalLane="52i_0" arrivalPos="10.00" arrivalSpeed="11.59" duration="91.00" routeLength="1015.10" waitSteps="0" timeLoss="14.17" rerouteNo="0" devices="tripinfo_right_61" vType="typeWE" speedFactor="1.00" vaporized=""/>
    <tripinfo id="right_62" depart="289.00" departLane="51o_0" departPos="5.10" departSpeed="0.00" departDelay="3.00" arrival="380.00" arrivalLane="52i_0" arrivalPos="10.00" arrivalSpeed="11.30" duration="91.00" routeLength="1015.10" waitSteps="0" timeLoss="14.71" rerouteNo="0" devices="tripinfo_right_62" vType="typeWE" speedFactor="1.00" vaporized=""/>
    <tripinfo id="down_60" depart="283.00" departLane="54o_0" departPos="7.10" departSpeed="0.00" departDelay="0.00" arrival="399.00" arrivalLane="53i_0" arrivalPos="10.00" arrivalSpeed="11.63" duration="116.00" routeLength="1013.10" waitSteps="14" timeLoss="44.07" rerouteNo="0" devices="tripinfo_down_60" vType="typeNS" speedFactor="1.00" vaporized=""/>
    <tripinfo id="down_66" depart="302.00" departLane="54o_0" departPos="7.10" departSpeed="0.00" departDelay="0.00" arrival="401.00" arrivalLane="53i_0" arrivalPos="10.00" arrivalSpeed="11.63" duration="99.00" routeLength="1013.10" waitSteps="0" timeLoss="27.46" rerouteNo="0" devices="tripinfo_down_66" vType="typeNS" speedFactor="1.00" vaporized=""/>
    <tripinfo id="down_67" depart="318.00" departLane="54o_0" departPos="7.10" departSpeed="0.00" departDelay="0.00" arrival="407.00" arrivalLane="53i_0" arrivalPos="10.00" arrivalSpeed="11.61" duration="89.00" routeLength="1013.10" waitSteps="0" timeLoss="17.36" rerouteNo="0" devices="tripinfo_down_67" vType="typeNS" speedFactor="1.00" vaporized=""/>
    <tripinfo id="right_63" depart="295.00" departLane="51o_0" departPos="5.10" departSpeed="0.00" departDelay="7.00" arrival="428.00" arrivalLane="52i_0" arrivalPos="10.00" arrivalSpeed="11.08" duration="133.00" routeLength="1015.10" waitSteps="30" timeLoss="56.98" rerouteNo="0" devices="tripinfo_right_63" vType="typeWE" speedFactor="1.00" vaporized=""/>
    <tripinfo id="left_71" depart="339.00" departLane="52o_0" departPos="5.10" departSpeed="0.00" departDelay="0.00" arrival="430.00" arrivalLane="51i_0" arrivalPos="10.00" arrivalSpeed="11.34" duration="91.00" routeLength="1015.10" waitSteps="0" timeLoss="14.73" rerouteNo="0" devices="tripinfo_left_71" vType="typeWE" speedFactor="1.00" vaporized=""/>
    <tripinfo id="right_64" depart="304.00" departLane="51o_0" departPos="5.10" departSpeed="0.00" departDelay="13.00" arrival="431.00" arrivalLane="52i_0" arrivalPos="10.00" arrivalSpeed="11.40" duration="127.00" routeLength="1015.10" waitSteps="25" timeLoss="50.49" rerouteNo="0" devices="tripinfo_right_64" vType="typeWE" speedFactor="1.00" vaporized=""/>
    <tripinfo id="right_65" depart="310.00" departLane="51o_0" departPos="5.10" departSpeed="0.00" departDelay="16.00" arrival="432.00" arrivalLane="52i_0" arrivalPos="10.00" arrivalSpeed="11.05" duration="122.00" routeLength="1015.10" waitSteps="19" timeLoss="45.96" rerouteNo="0" devices="tripinfo_right_65" vType="typeWE" speedFactor="1.00" vaporized=""/>
    <tripinfo id="down_69" depart="331.00" departLane="54o_0" departPos="7.10" departSpeed="0.00" departDelay="0.00" arrival="446.00" arrivalLane="53i_0" arrivalPos="10.00" arrivalSpeed="11.65" duration="115.00" routeLength="1013.10" waitSteps="16" timeLoss="43.36" rerouteNo="0" devices="tripinfo_down_69" vType="typeNS" speedFactor="1.00" vaporized=""/>
    <tripinfo id="down_70" depart="337.00" departLane="54o_0" departPos="7.10" departSpeed="0.00" departDelay="0.00" arrival="449.00" arrivalLane="53i_0" arrivalPos="10.00" arrivalSpeed="11.55" duration="112.00" routeLength="1013.10" waitSteps="10" timeLoss="40.06" rerouteNo="0" devices="tripinfo_down_70" vType="typeNS" speedFactor="1.00" vaporized=""/>
    <tripinfo id="down_74" depart="344.00" departLane="54o_0" departPos="7.10" departSpeed="0.00" departDelay="0.00" arrival="451.00" arrivalLane="53i_0" arrivalPos="10.00" arrivalSpeed="11.22" duration="107.00" routeLength="1013.10" waitSteps="4" timeLoss="35.18" rerouteNo="0" devices="tripinfo_down_74" vType="typeNS" speedFactor="1.00" vaporized=""/>
    <tripinfo id="left_73" depart="344.00" departLane="52o_0" departPos="5.10" departSpeed="0.00" departDelay="0.00" arrival="464.00" arrivalLane="51i_0" arrivalPos="10.00" arrivalSpeed="11.30" duration="120.00" routeLength="1015.10" waitSteps="19" timeLoss="43.67" rerouteNo="0" devices="tripinfo_left_73" vType="typeWE" speedFactor="1.00" vaporized=""/>
    <tripinfo id="right_68" depart="324.00" departLane="51o_0" departPos="5.10" departSpeed="0.00" departDelay="2.00" arrival="465.00" arrivalLane="52i_0" arrivalPos="10.00" arrivalSpeed="11.42" duration="141.00" routeLength="1015.10" waitSteps="29" timeLoss="64.85" rerouteNo="0" devices="tripinfo_right_68" vType="typeWE" speedFactor="1.00" vaporized=""/>
    <tripinfo id="left_75" depart="349.00" departLane="52o_0" departPos="5.10" departSpeed="0.00" departDelay="3.00" arrival="466.00" arrivalLane="51i_0" arrivalPos="10.00" arrivalSpeed="11.38" duration="117.00" routeLength="1015.10" waitSteps="15" timeLoss="40.42" rerouteNo="0" devices="tripinfo_left_75" vType="typeWE" speedFactor="1.00" vaporized=""/>
    <tripinfo id="right_72" depart="342.00" departLane="51o_0" departPos="5.10" departSpeed="0.00" departDelay="0.00" arrival="467.00" arrivalLane="52i_0" arrivalPos="10.00" arrivalSpeed="11.39" duration="125.00" routeLength="1015.10" waitSteps="20" timeLoss="49.10" rerouteNo="0" devices="tripinfo_right_72" vType="typeWE" speedFactor="1.00" vaporized=""/>
    <tripinfo id="right_77" depart="354.00" departLane="51o_0" departPos="5.10" departSpeed="0.00" departDelay="0.00" arrival="469.00" arrivalLane="52i_0" arrivalPos="10.00" arrivalSpeed="11.33" duration="115.00" routeLength="1015.10" waitSteps="11" timeLoss="39.18" rerouteNo="0" devices="tripinfo_right_77" vType="typeWE" speedFactor="1.00" vaporized=""/>
    <tripinfo id="down_76" depart="350.00" departLane="54o_0" departPos="7.10" departSpeed="0.00" departDelay="1.00" arrival="482.00" arrivalLane="53i_0" arrivalPos="10.00" arrivalSpeed="11.59" duration="132.00" routeLength="1013.10" waitSteps="21" timeLoss="60.46" rerouteNo="0" devices="tripinfo_down_76" vType="typeNS" speedFactor="1.00" vaporized=""/>
    <tripinfo id="down_79" depart="377.00" departLane="54o_0" departPos="7.10" departSpeed="0.00" departDelay="0.00" arrival="485.00" arrivalLane="53i_0" arrivalPos="10.00" arrivalSpeed="11.63" duration="108.00" routeLength="1013.10" waitSteps="6" timeLoss="36.68" rerouteNo="0" devices="tripinfo_down_79" vType="typeNS" speedFactor="1.00" vaporized=""/>
    <tripinfo id="down_80" depart="383.00" departLane="54o_0" departPos="7.10" departSpeed="0.00" departDelay="4.00" arrival="488.00" arrivalLane="53i_0" arrivalPos="10.00" arrivalSpeed="11.74" duration="105.00" routeLength="1013.10" waitSteps="1" timeLoss="33.33" rerouteNo="0" devices="tripinfo_down_80" vType="typeNS" speedFactor="1.00" vaporized=""/>
    <tripinfo id="right_78" depart="375.00" departLane="51o_0" departPos="5.10" departSpeed="0.00" departDelay="0.00" arrival="500.00" arrivalLane="52i_0" arrivalPos="10.00" arrivalSpeed="10.78" duration="125.00" routeLength="1015.10" waitSteps="23" timeLoss="49.01" rerouteNo="0" devices="tripinfo_right_78" vType="typeWE" speedFactor="1.00" vaporized=""/>