<?xml version="1.0" encoding="UTF-8"?>

<!-- generated on Sun Mar  4 18:50:25 2018 by SUMO Version 0.32.0
<?xml version="1.0" encoding="UTF-8"?>

<configuration xmlns:xsi="http://www.w3.org/2001/XMLSchema-instance" xsi:noNamespaceSchemaLocation="http://sumo.dlr.de/xsd/sumoConfiguration.xsd">

    <input>
        <net-file value="data/cross.net.xml"/>
        <route-files value="data/cross.rou.xml"/>
        <additional-files value="data/cross.det.xml,data/cross.det2.xml"/>
    </input>

    <output>
        <tripinfo-output value="fgreen=60_tripinfo.xml"/>
    </output>

    <time>
        <begin value="0"/>
    </time>

    <report>
        <verbose value="true"/>
        <error-log value="errors"/>
        <no-step-log value="true"/>
    </report>

    <traci_server>
        <remote-port value="61414"/>
    </traci_server>

</configuration>
-->

<tripinfos xmlns:xsi="http://www.w3.org/2001/XMLSchema-instance" xsi:noNamespaceSchemaLocation="http://sumo.dlr.de/xsd/tripinfo_file.xsd">
    <tripinfo id="left_0" depart="0.00" departLane="52o_0" departPos="5.10" departSpeed="0.00" departDelay="0.00" arrival="92.00" arrivalLane="51i_0" arrivalPos="10.00" arrivalSpeed="11.76" duration="92.00" routeLength="1015.10" waitSteps="0" timeLoss="15.32" rerouteNo="0" devices="tripinfo_left_0" vType="typeWE" speedFactor="1.00" vaporized=""/>
    <tripinfo id="right_2" depart="3.00" departLane="51o_0" departPos="5.10" departSpeed="0.00" departDelay="0.00" arrival="94.00" arrivalLane="52i_0" arrivalPos="10.00" arrivalSpeed="11.48" duration="91.00" routeLength="1015.10" waitSteps="0" timeLoss="14.26" rerouteNo="0" devices="tripinfo_right_2" vType="typeWE" speedFactor="1.00" vaporized=""/>
    <tripinfo id="left_1" depart="5.00" departLane="52o_0" departPos="5.10" departSpeed="0.00" departDelay="3.00" arrival="96.00" arrivalLane="51i_0" arrivalPos="10.00" arrivalSpeed="11.25" duration="91.00" routeLength="1015.10" waitSteps="0" timeLoss="15.02" rerouteNo="0" devices="tripinfo_left_1" vType="typeWE" speedFactor="1.00" vaporized=""/>
    <tripinfo id="right_3" depart="8.00" departLane="51o_0" departPos="5.10" departSpeed="0.00" departDelay="4.00" arrival="100.00" arrivalLane="52i_0" arrivalPos="10.00" arrivalSpeed="11.56" duration="92.00" routeLength="1015.10" waitSteps="0" timeLoss="15.41" rerouteNo="0" devices="tripinfo_right_3" vType="typeWE" speedFactor="1.00" vaporized=""/>
    <tripinfo id="left_4" depart="10.00" departLane="52o_0" departPos="5.10" departSpeed="0.00" departDelay="6.00" arrival="101.00" arrivalLane="51i_0" arrivalPos="10.00" arrivalSpeed="11.45" duration="91.00" routeLength="1015.10" waitSteps="0" timeLoss="14.78" rerouteNo="0" devices="tripinfo_left_4" vType="typeWE" speedFactor="1.00" vaporized=""/>
    <tripinfo id="right_6" depart="13.00" departLane="51o_0" departPos="5.10" departSpeed="0.00" departDelay="4.00" arrival="104.00" arrivalLane="52i_0" arrivalPos="10.00" arrivalSpeed="10.88" duration="91.00" routeLength="1015.10" waitSteps="0" timeLoss="14.81" rerouteNo="0" devices="tripinfo_right_6" vType="typeWE" speedFactor="1.00" vaporized=""/>
    <tripinfo id="left_5" depart="15.00" departLane="52o_0" departPos="5.10" departSpeed="0.00" departDelay="9.00" arrival="106.00" arrivalLane="51i_0" arrivalPos="10.00" arrivalSpeed="11.47" duration="91.00" routeLength="1015.10" waitSteps="0" timeLoss="14.41" rerouteNo="0" devices="tripinfo_left_5" vType="typeWE" speedFactor="1.00" vaporized=""/>
    <tripinfo id="down_7" depart="13.00" departLane="54o_0" departPos="7.10" departSpeed="0.00" departDelay="0.00" arrival="123.00" arrivalLane="53i_0" arrivalPos="10.00" arrivalSpeed="11.48" duration="110.00" routeLength="1013.10" waitSteps="9" timeLoss="38.18" rerouteNo="0" devices="tripinfo_down_7" vType="typeNS" speedFactor="1.00" vaporized=""/>
    <tripinfo id="down_12" depart="29.00" departLane="54o_0" departPos="7.10" departSpeed="0.00" departDelay="0.00" arrival="125.00" arrivalLane="53i_0" arrivalPos="10.00" arrivalSpeed="11.23" duration="96.00" routeLength="1013.10" waitSteps="0" timeLoss="24.38" rerouteNo="0" devices="tripinfo_down_12" vType="typeNS" speedFactor="1.00" vaporized=""/>
    <tripinfo id="left_8" depart="20.00" departLane="52o_0" departPos="5.10" departSpeed="0.00" departDelay="5.00" arrival="189.00" arrivalLane="51i_0" arrivalPos="10.00" arrivalSpeed="11.62" duration="169.00" routeLength="1015.10" waitSteps="66" timeLoss="92.71" rerouteNo="0" devices="tripinfo_left_8" vType="typeWE" speedFactor="1.00" vaporized=""/>
    <tripinfo id="right_13" depart="30.00" departLane="51o_0" departPos="5.10" departSpeed="0.00" departDelay="0.00" arrival="189.00" arrivalLane="52i_0" arrivalPos="10.00" arrivalSpeed="11.82" duration="159.00" routeLength="1015.10" waitSteps="56" timeLoss="82.91" rerouteNo="0" devices="tripinfo_right_13" vType="typeWE" speedFactor="1.00" vaporized=""/>
    <tripinfo id="left_9" depart="25.00" departLane="52o_0" departPos="5.10" departSpeed="0.00" departDelay="6.00" arrival="191.00" arrivalLane="51i_0" arrivalPos="10.00" arrivalSpeed="11.52" duration="166.00" routeLength="1015.10" waitSteps="61" timeLoss="89.72" rerouteNo="0" devices="tripinfo_left_9" vType="typeWE" speedFactor="1.00" vaporized=""/>
    <tripinfo id="right_18" depart="42.00" departLane="51o_0" departPos="5.10" departSpeed="0.00" departDelay="0.00" arrival="191.00" arrivalLane="52i_0" arrivalPos="10.00" arrivalSpeed="11.64" duration="149.00" routeLength="1015.10" waitSteps="45" timeLoss="72.64" rerouteNo="0" devices="tripinfo_right_18" vType="typeWE" speedFactor="1.00" vaporized=""/>
    <tripinfo id="left_10" depart="30.00" departLane="52o_0" departPos="5.10" departSpeed="0.00" departDelay="8.00" arrival="193.00" arrivalLane="51i_0" arrivalPos="10.00" arrivalSpeed="11.46" duration="163.00" routeLength="1015.10" waitSteps="59" timeLoss="86.52" rerouteNo="0" devices="tripinfo_left_10" vType="typeWE" speedFactor="1.00" vaporized=""/>
    <tripinfo id="right_23" depart="55.00" departLane="51o_0" departPos="5.10" departSpeed="0.00" departDelay="0.00" arrival="193.00" arrivalLane="52i_0" arrivalPos="10.00" arrivalSpeed="11.70" duration="138.00" routeLength="1015.10" waitSteps="34" timeLoss="61.69" rerouteNo="0" devices="tripinfo_right_23" vType="typeWE" speedFactor="1.00" vaporized=""/>
    <tripinfo id="left_11" depart="35.00" departLane="52o_0" departPos="5.10" departSpeed="0.00" departDelay="6.00" arrival="194.00" arrivalLane="51i_0" arrivalPos="10.00" arrivalSpeed="10.91" duration="159.00" routeLength="1015.10" waitSteps="55" timeLoss="82.95" rerouteNo="0" devices="tripinfo_left_11" vType="typeWE" speedFactor="1.00" vaporized=""/>
    <tripinfo id="right_26" depart="61.00" departLane="51o_0" departPos="5.10" departSpeed="0.00" departDelay="0.00" arrival="195.00" arrivalLane="52i_0" arrivalPos="10.00" arrivalSpeed="11.54" duration="134.00" routeLength="1015.10" waitSteps="30" timeLoss="57.97" rerouteNo="0" devices="tripinfo_right_26" vType="typeWE" speedFactor="1.00" vaporized=""/>
    <tripinfo id="left_14" depart="40.00" departLane="52o_0" departPos="5.10" departSpeed="0.00" departDelay="9.00" arrival="196.00" arrivalLane="51i_0" arrivalPos="10.00" arrivalSpeed="11.49" duration="156.00" routeLength="1015.10" waitSteps="51" timeLoss="80.08" rerouteNo="0" devices="tripinfo_left_14" vType="typeWE" speedFactor="1.00" vaporized=""/>
    <tripinfo id="right_27" depart="69.00" departLane="51o_0" departPos="5.10" departSpeed="0.00" departDelay="0.00" arrival="197.00" arrivalLane="52i_0" arrivalPos="10.00" arrivalSpeed="11.65" duration="128.00" routeLength="1015.10" waitSteps="23" timeLoss="51.73" rerouteNo="0" devices="tripinfo_right_27" vType="typeWE" speedFactor="1.00" vaporized=""/>
    <tripinfo id="left_15" depart="46.00" departLane="52o_0" departPos="5.10" departSpeed="0.00" departDelay="13.00" arrival="198.00" arrivalLane="51i_0" arrivalPos="10.00" arrivalSpeed="11.34" duration="152.00" routeLength="1015.10" waitSteps="47" timeLoss="76.01" rerouteNo="0" devices="tripinfo_left_15" vType="typeWE" speedFactor="1.00" vaporized=""/>
    <tripinfo id="right_28" depart="76.00" departLane="51o_0" departPos="5.10" departSpeed="0.00" departDelay="0.00" arrival="199.00" arrivalLane="52i_0" arrivalPos="10.00" arrivalSpeed="11.72" duration="123.00" routeLength="1015.10" waitSteps="17" timeLoss="47.13" rerouteNo="0" devices="tripinfo_right_28" vType="typeWE" speedFactor="1.00" vaporized=""/>
    <tripinfo id="left_16" depart="51.00" departLane="52o_0" departPos="5.10" departSpeed="0.00" departDelay="16.00" arrival="201.00" arrivalLane="51i_0" arrivalPos="10.00" arrivalSpeed="11.64" duration="150.00" routeLength="1015.10" waitSteps="45" timeLoss="73.50" rerouteNo="0" devices="tripinfo_left_16" vType="typeWE" speedFactor="1.00" vaporized=""/>
    <tripinfo id="right_29" depart="81.00" departLane="51o_0" departPos="5.10" departSpeed="0.00" departDelay="4.00" arrival="201.00" arrivalLane="52i_0" arrivalPos="10.00" arrivalSpeed="11.33" duration="120.00" routeLength="1015.10" waitSteps="14" timeLoss="43.86" rerouteNo="0" devices="tripinfo_right_29" vType="typeWE" speedFactor="1.00" vaporized=""/>
    <tripinfo id="left_17" depart="56.00" departLane="52o_0" departPos="5.10" departSpeed="0.00" departDelay="15.00" arrival="202.00" arrivalLane="51i_0" arrivalPos="10.00" arrivalSpeed="11.51" duration="146.00" routeLength="1015.10" waitSteps="42" timeLoss="70.29" rerouteNo="0" devices="tripinfo_left_17" vType="typeWE" speedFactor="1.00" vaporized=""/>
    <tripinfo id="right_31" depart="86.00" departLane="51o_0" departPos="5.10" departSpeed="0.00" departDelay="2.00" arrival="203.00" arrivalLane="52i_0" arrivalPos="10.00" arrivalSpeed="11.52" duration="117.00" routeLength="1015.10" waitSteps="11" timeLoss="40.65" rerouteNo="0" devices="tripinfo_right_31" vType="typeWE" speedFactor="1.00" vaporized=""/>
    <tripinfo id="left_19" depart="61.00" departLane="52o_0" departPos="5.10" departSpeed="0.00" departDelay="16.00" arrival="205.00" arrivalLane="51i_0" arrivalPos="10.00" arrivalSpeed="11.27" duration="144.00" routeLength="1015.10" waitSteps="40" timeLoss="67.49" rerouteNo="0" devices="tripinfo_left_19" vType="typeWE" speedFactor="1.00" vaporized=""/>
    <tripinfo id="right_35" depart="92.00" departLane="51o_0" departPos="5.10" departSpeed="0.00" departDelay="0.00" arrival="205.00" arrivalLane="52i_0" arrivalPos="10.00" arrivalSpeed="11.49" duration="113.00" routeLength="1015.10" waitSteps="7" timeLoss="36.49" rerouteNo="0" devices="tripinfo_right_35" vType="typeWE" speedFactor="1.00" vaporized=""/>
    <tripinfo id="left_20" depart="66.00" departLane="52o_0" departPos="5.10" departSpeed="0.00" departDelay="20.00" arrival="207.00" arrivalLane="51i_0" arrivalPos="10.00" arrivalSpeed="11.34" duration="141.00" routeLength="1015.10" waitSteps="35" timeLoss="64.71" rerouteNo="0" devices="tripinfo_left_20" vType="typeWE" speedFactor="1.00" vaporized=""/>
    <tripinfo id="right_37" depart="101.00" departLane="51o_0" departPos="5.10" departSpeed="0.00" departDelay="2.00" arrival="207.00" arrivalLane="52i_0" arrivalPos="10.00" arrivalSpeed="11.51" duration="106.00" routeLength="1015.10" waitSteps="0" timeLoss="29.39" rerouteNo="0" devices="tripinfo_right_37" vType="typeWE" speedFactor="1.00" vaporized=""/>
    <tripinfo id="left_21" depart="71.00" departLane="52o_0" departPos="5.10" departSpeed="0.00" departDelay="20.00" arrival="209.00" arrivalLane="51i_0" arrivalPos="10.00" arrivalSpeed="11.68" duration="138.00" routeLength="1015.10" waitSteps="31" timeLoss="61.62" rerouteNo="0" devices="tripinfo_left_21" vType="typeWE" speedFactor="1.00" vaporized=""/>
    <tripinfo id="right_41" depart="106.00" departLane="51o_0" departPos="5.10" departSpeed="0.00" departDelay="0.00" arrival="209.00" arrivalLane="52i_0" arrivalPos="10.00" arrivalSpeed="11.75" duration="103.00" routeLength="1015.10" waitSteps="0" timeLoss="26.35" rerouteNo="0" devices="tripinfo_right_41" vType="typeWE" speedFactor="1.00" vaporized=""/>
    <tripinfo id="right_42" depart="111.00" departLane="51o_0" departPos="5.10" departSpeed="0.00" departDelay="3.00" arrival="210.00" arrivalLane="52i_0" arrivalPos="10.00" arrivalSpeed="10.87" duration="99.00" routeLength="1015.10" waitSteps="0" timeLoss="22.98" rerouteNo="0" devices="tripinfo_right_42" vType="typeWE" speedFactor="1.00" vaporized=""/>
    <tripinfo id="left_22" depart="76.00" departLane="52o_0" departPos="5.10" departSpeed="0.00" departDelay="23.00" arrival="211.00" arrivalLane="51i_0" arrivalPos="10.00" arrivalSpeed="11.60" duration="135.00" routeLength="1015.10" waitSteps="29" timeLoss="58.56" rerouteNo="0" devices="tripinfo_left_22" vType="typeWE" speedFactor="1.00" vaporized=""/>
    <tripinfo id="right_43" depart="116.00" departLane="51o_0" departPos="5.10" departSpeed="0.00" departDelay="5.00" arrival="212.00" arrivalLane="52i_0" arrivalPos="10.00" arrivalSpeed="11.48" duration="96.00" routeLength="1015.10" waitSteps="0" timeLoss="20.09" rerouteNo="0" devices="tripinfo_right_43" vType="typeWE" speedFactor="1.00" vaporized=""/>
    <tripinfo id="left_24" depart="81.00" departLane="52o_0" departPos="5.10" departSpeed="0.00" departDelay="25.00" arrival="213.00" arrivalLane="51i_0" arrivalPos="10.00" arrivalSpeed="11.55" duration="132.00" routeLength="1015.10" waitSteps="24" timeLoss="55.43" rerouteNo="0" devices="tripinfo_left_24" vType="typeWE" speedFactor="1.00" vaporized=""/>
    <tripinfo id="left_25" depart="86.00" departLane="52o_0" departPos="5.10" departSpeed="0.00" departDelay="28.00" arrival="214.00" arrivalLane="51i_0" arrivalPos="10.00" arrivalSpeed="10.88" duration="128.00" routeLength="1015.10" waitSteps="20" timeLoss="51.90" rerouteNo="0" devices="tripinfo_left_25" vType="typeWE" speedFactor="1.00" vaporized=""/>
    <tripinfo id="right_44" depart="121.00" departLane="51o_0" departPos="5.10" departSpeed="0.00" departDelay="7.00" arrival="214.00" arrivalLane="52i_0" arrivalPos="10.00" arrivalSpeed="11.61" duration="93.00" routeLength="1015.10" waitSteps="0" timeLoss="16.90" rerouteNo="0" devices="tripinfo_right_44" vType="typeWE" speedFactor="1.00" vaporized=""/>
    <tripinfo id="left_30" depart="91.00" departLane="52o_0" departPos="5.10" departSpeed="0.00" departDelay="13.00" arrival="216.00" arrivalLane="51i_0" arrivalPos="10.00" arrivalSpeed="11.78" duration="125.00" routeLength="1015.10" waitSteps="19" timeLoss="49.00" rerouteNo="0" devices="tripinfo_left_30" vType="typeWE" speedFactor="1.00" vaporized=""/>
    <tripinfo id="right_49" depart="126.00" departLane="51o_0" departPos="5.10" departSpeed="0.00" departDelay="1.00" arrival="217.00" arrivalLane="52i_0" arrivalPos="10.00" arrivalSpeed="11.51" duration="91.00" routeLength="1015.10" waitSteps="0" timeLoss="14.39" rerouteNo="0" devices="tripinfo_right_49" vType="typeWE" speedFactor="1.00" vaporized=""/>
    <tripinfo id="left_32" depart="96.00" departLane="52o_0" departPos="5.10" departSpeed="0.00" departDelay="11.00" arrival="218.00" arrivalLane="51i_0" arrivalPos="10.00" arrivalSpeed="11.71" duration="122.00" routeLength="1015.10" waitSteps="16" timeLoss="45.86" rerouteNo="0" devices="tripinfo_left_32" vType="typeWE" speedFactor="1.00" vaporized=""/>
    <tripinfo id="left_34" depart="101.00" departLane="52o_0" departPos="5.10" departSpeed="0.00" departDelay="10.00" arrival="220.00" arrivalLane="51i_0" arrivalPos="10.00" arrivalSpeed="11.61" duration="119.00" routeLength="1015.10" waitSteps="12" timeLoss="42.92" rerouteNo="0" devices="tripinfo_left_34" vType="typeWE" speedFactor="1.00" vaporized=""/>
    <tripinfo id="left_38" depart="106.00" departLane="52o_0" departPos="5.10" departSpeed="0.00" departDelay="7.00" arrival="222.00" arrivalLane="51i_0" arrivalPos="10.00" arrivalSpeed="11.47" duration="116.00" routeLength="1015.10" waitSteps="8" timeLoss="39.90" rerouteNo="0" devices="tripinfo_left_38" vType="typeWE" speedFactor="1.00" vaporized=""/>
    <tripinfo id="left_39" depart="111.00" departLane="52o_0" departPos="5.10" departSpeed="0.00" departDelay="10.00" arrival="224.00" arrivalLane="51i_0" arrivalPos="10.00" arrivalSpeed="11.88" duration="113.00" routeLength="1015.10" waitSteps="4" timeLoss="36.49" rerouteNo="0" devices="tripinfo_left_39" vType="typeWE" speedFactor="1.00" vaporized=""/>
    <tripinfo id="left_40" depart="116.00" departLane="52o_0" departPos="5.10" departSpeed="0.00" departDelay="12.00" arrival="226.00" arrivalLane="51i_0" arrivalPos="10.00" arrivalSpeed="11.56" duration="110.00" routeLength="1015.10" waitSteps="2" timeLoss="33.75" rerouteNo="0" devices="tripinfo_left_40" vType="typeWE" speedFactor="1.00" vaporized=""/>
    <tripinfo id="right_51" depart="135.00" departLane="51o_0" departPos="5.10" departSpeed="0.00" departDelay="0.00" arrival="227.00" arrivalLane="52i_0" arrivalPos="10.00" arrivalSpeed="11.46" duration="92.00" routeLength="1015.10" waitSteps="0" timeLoss="15.29" rerouteNo="0" devices="tripinfo_right_51" vType="typeWE" speedFactor="1.00" vaporized=""/>
    <tripinfo id="left_45" depart="121.00" departLane="52o_0" departPos="5.10" departSpeed="0.00" departDelay="7.00" arrival="228.00" arrivalLane="51i_0" arrivalPos="10.00" arrivalSpeed="11.32" duration="107.00" routeLength="1015.10" waitSteps="0" timeLoss="30.49" rerouteNo="0" devices="tripinfo_left_45" vType="typeWE" speedFactor="1.00" vaporized=""/>
    <tripinfo id="left_46" depart="126.00" departLane="52o_0" departPos="5.10" departSpeed="0.00" departDelay="8.00" arrival="230.00" arrivalLane="51i_0" arrivalPos="10.00" arrivalSpeed="11.05" duration="104.00" routeLength="1015.10" waitSteps="0" timeLoss="27.84" rerouteNo="0" devices="tripinfo_left_46" vType="typeWE" speedFactor="1.00" vaporized=""/>
    <tripinfo id="left_47" depart="131.00" departLane="52o_0" departPos="5.10" departSpeed="0.00" departDelay="12.00" arrival="232.00" arrivalLane="51i_0" arrivalPos="10.00" arrivalSpeed="11.47" duration="101.00" routeLength="1015.10" waitSteps="0" timeLoss="25.09" rerouteNo="0" devices="tripinfo_left_47" vType="typeWE" speedFactor="1.00" vaporized=""/>
    <tripinfo id="right_53" depart="140.00" departLane="51o_0" departPos="5.10" departSpeed="0.00" departDelay="2.00" arrival="232.00" arrivalLane="52i_0" arrivalPos="10.00" arrivalSpeed="11.47" duration="92.00" routeLength="1015.10" waitSteps="0" timeLoss="15.45" rerouteNo="0" devices="tripinfo_right_53" vType="typeWE" speedFactor="1.00" vaporized=""/>
    <tripinfo id="left_50" depart="136.00" departLane="52o_0" departPos="5.10" departSpeed="0.00" departDelay="5.00" arrival="234.00" arrivalLane="51i_0" arrivalPos="10.00" arrivalSpeed="11.28" duration="98.00" routeLength="1015.10" waitSteps="0" timeLoss="21.95" rerouteNo="0" devices="tripinfo_left_50" vType="typeWE" speedFactor="1.00" vaporized=""/>
    <tripinfo id="left_52" depart="141.00" departLane="52o_0" departPos="5.10" departSpeed="0.00" departDelay="6.00" arrival="236.00" arrivalLane="51i_0" arrivalPos="10.00" arrivalSpeed="11.48" duration="95.00" routeLength="1015.10" waitSteps="0" timeLoss="18.80" rerouteNo="0" devices="tripinfo_left_52" vType="typeWE" speedFactor="1.00" vaporized=""/>
    <tripinfo id="right_57" depart="145.00" departLane="51o_0" departPos="5.10" departSpeed="0.00" departDelay="1.00" arrival="237.00" arrivalLane="52i_0" arrivalPos="10.00" arrivalSpeed="11.35" duration="92.00" routeLength="1015.10" waitSteps="0" timeLoss="15.45" rerouteNo="0" devices="tripinfo_right_57" vType="typeWE" speedFactor="1.00" vaporized=""/>
    <tripinfo id="left_54" depart="146.00" departLane="52o_0" departPos="5.10" departSpeed="0.00" departDelay="8.00" arrival="238.00" arrivalLane="51i_0" arrivalPos="10.00" arrivalSpeed="11.30" duration="92.00" routeLength="1015.10" waitSteps="0" timeLoss="15.46" rerouteNo="0" devices="tripinfo_left_54" vType="typeWE" speedFactor="1.00" vaporized=""/>
    <tripinfo id="down_33" depart="89.00" departLane="54o_0" departPos="7.10" departSpeed="0.00" departDelay="0.00" arrival="254.00" arrivalLane="53i_0" arrivalPos="10.00" arrivalSpeed="11.53" duration="165.00" routeLength="1013.10" waitSteps="65" timeLoss="93.37" rerouteNo="0" devices="tripinfo_down_33" vType="typeNS" speedFactor="1.00" vaporized=""/>
    <tripinfo id="down_36" depart="96.00" departLane="54o_0" departPos="7.10" departSpeed="0.00" departDelay="0.00" arrival="257.00" arrivalLane="53i_0" arrivalPos="10.00" arrivalSpeed="11.57" duration="161.00" routeLength="1013.10" waitSteps="61" timeLoss="89.00" rerouteNo="0" devices="tripinfo_down_36" vType="typeNS" speedFactor="1.00" vaporized=""/>
    <tripinfo id="down_48" depart="122.00" departLane="54o_0" departPos="7.10" departSpeed="0.00" departDelay="0.00" arrival="259.00" arrivalLane="53i_0" arrivalPos="10.00" arrivalSpeed="11.39" duration="137.00" routeLength="1013.10" waitSteps="35" timeLoss="65.03" rerouteNo="0" devices="tripinfo_down_48" vType="typeNS" speedFactor="1.00" vaporized=""/>
    <tripinfo id="down_69" depart="172.00" departLane="54o_0" departPos="7.10" departSpeed="0.00" departDelay="0.00" arrival="262.00" arrivalLane="53i_0" arrivalPos="10.00" arrivalSpeed="11.50" duration="90.00" routeLength="1013.10" waitSteps="0" timeLoss="18.49" rerouteNo="0" devices="tripinfo_down_69" vType="typeNS" speedFactor="1.00" vaporized=""/>
    <tripinfo id="left_55" depart="151.00" departLane="52o_0" departPos="5.10" departSpeed="0.00" departDelay="9.00" arrival="320.00" arrivalLane="51i_0" arrivalPos="10.00" arrivalSpeed="11.51" duration="169.00" routeLength="1015.10" waitSteps="67" timeLoss="93.19" rerouteNo="0" devices="tripinfo_left_55" vType="typeWE" speedFactor="1.00" vaporized=""/>
    <tripinfo id="right_58" depart="151.00" departLane="51o_0" departPos="5.10" departSpeed="0.00" departDelay="6.00" arrival="321.00" arrivalLane="52i_0" arrivalPos="10.00" arrivalSpeed="11.57" duration="170.00" routeLength="1015.10" waitSteps="67" timeLoss="94.19" rerouteNo="0" devices="tripinfo_right_58" vType="typeWE" speedFactor="1.00" vaporized=""/>
    <tripinfo id="left_56" depart="156.00" departLane="52o_0" departPos="5.10" departSpeed="0.00" departDelay="13.00" arrival="323.00" arrivalLane="51i_0" arrivalPos="10.00" arrivalSpeed="11.39" duration="167.00" routeLength="1015.10" waitSteps="65" timeLoss="90.60" rerouteNo="0" devices="tripinfo_left_56" vType="typeWE" speedFactor="1.00" vaporized=""/>
    <tripinfo id="right_60" depart="156.00" departLane="51o_0" departPos="5.10" departSpeed="0.00" departDelay="1.00" arrival="323.00" arrivalLane="52i_0" arrivalPos="10.00" arrivalSpeed="11.52" duration="167.00" routeLength="1015.10" waitSteps="64" timeLoss="91.03" rerouteNo="0" devices="tripinfo_right_60" vType="typeWE" speedFactor="1.00" vaporized=""/>
    <tripinfo id="left_59" depart="161.00" departLane="52o_0" departPos="5.10" departSpeed="0.00" departDelay="8.00" arrival="325.00" arrivalLane="51i_0" arrivalPos="10.00" arrivalSpeed="11.69" duration="164.00" routeLength="1015.10" waitSteps="59" timeLoss="87.74" rerouteNo="0" devices="tripinfo_left_59" vType="typeWE" speedFactor="1.00" vaporized=""/>
    <tripinfo id="right_65" depart="167.00" departLane="51o_0" departPos="5.10" departSpeed="0.00" departDelay="0.00" arrival="325.00" arrivalLane="52i_0" arrivalPos="10.00" arrivalSpeed="11.49" duration="158.00" routeLength="1015.10" waitSteps="55" timeLoss="82.17" rerouteNo="0" devices="tripinfo_right_65" vType="typeWE" speedFactor="1.00" vaporized=""/>
    <tripinfo id="left_61" depart="166.00" departLane="52o_0" departPos="5.10" departSpeed="0.00" departDelay="10.00" arrival="327.00" arrivalLane="51i_0" arrivalPos="10.00" arrivalSpeed="11.70" duration="161.00" routeLength="1015.10" waitSteps="55" timeLoss="85.15" rerouteNo="0" devices="tripinfo_left_61" vType="typeWE" speedFactor="1.00" vaporized=""/>
    <tripinfo id="right_66" depart="172.00" departLane="51o_0" departPos="5.10" departSpeed="0.00" departDelay="4.00" arrival="327.00" arrivalLane="52i_0" arrivalPos="10.00" arrivalSpeed="11.66" duration="155.00" routeLength="1015.10" waitSteps="52" timeLoss="79.04" rerouteNo="0" devices="tripinfo_right_66" vType="typeWE" speedFactor="1.00" vaporized=""/>
    <tripinfo id="left_62" depart="172.00" departLane="52o_0" departPos="5.10" departSpeed="0.00" departDelay="12.00" arrival="329.00" arrivalLane="51i_0" arrivalPos="10.00" arrivalSpeed="11.55" duration="157.00" routeLength="1015.10" waitSteps="52" timeLoss="81.05" rerouteNo="0" devices="tripinfo_left_62" vType="typeWE" speedFactor="1.00" vaporized=""/>
    <tripinfo id="right_70" depart="177.00" departLane="51o_0" departPos="5.10" departSpeed="0.00" departDelay="1.00" arrival="329.00" arrivalLane="52i_0" arrivalPos="10.00" arrivalSpeed="11.25" duration="152.00" routeLength="1015.10" waitSteps="47" timeLoss="75.98" rerouteNo="0" devices="tripinfo_right_70" vType="typeWE" speedFactor="1.00" vaporized=""/>
    <tripinfo id="left_63" depart="177.00" departLane="52o_0" departPos="5.10" departSpeed="0.00" departDelay="13.00" arrival="331.00" arrivalLane="51i_0" arrivalPos="10.00" arrivalSpeed="11.59" duration="154.00" routeLength="1015.10" waitSteps="49" timeLoss="77.78" rerouteNo="0" devices="tripinfo_left_63" vType="typeWE" speedFactor="1.00" vaporized=""/>
    <tripinfo id="right_72" depart="182.00" departLane="51o_0" departPos="5.10" departSpeed="0.00" departDelay="1.00" arrival="331.00" arrivalLane="52i_0" arrivalPos="10.00" arrivalSpeed="11.59" duration="149.00" routeLength="1015.10" waitSteps="44" timeLoss="72.80" rerouteNo="0" devices="tripinfo_right_72" vType="typeWE" speedFactor="1.00" vaporized=""/>
    <tripinfo id="left_64" depart="182.00" departLane="52o_0" departPos="5.10" departSpeed="0.00" departDelay="16.00" arrival="333.00" arrivalLane="51i_0" arrivalPos="10.00" arrivalSpeed="11.66" duration="151.00" routeLength="1015.10" waitSteps="45" timeLoss="74.64" rerouteNo="0" devices="tripinfo_left_64" vType="typeWE" speedFactor="1.00" vaporized=""/>
    <tripinfo id="right_73" depart="194.00" departLane="51o_0" departPos="5.10" departSpeed="0.00" departDelay="11.00" arrival="333.00" arrivalLane="52i_0" arrivalPos="10.00" arrivalSpeed="11.65" duration="139.00" routeLength="1015.10" waitSteps="31" timeLoss="62.48" rerouteNo="0" devices="tripinfo_right_73" vType="typeWE" speedFactor="1.00" vaporized=""/>
    <tripinfo id="left_67" depart="187.00" departLane="52o_0" departPos="5.10" departSpeed="0.00" departDelay="18.00" arrival="335.00" arrivalLane="51i_0" arrivalPos="10.00" arrivalSpeed="11.44" duration="148.00" routeLength="1015.10" waitSteps="41" timeLoss="71.46" rerouteNo="0" devices="tripinfo_left_67" vType="typeWE" speedFactor="1.00" vaporized=""/>
    <tripinfo id="right_74" depart="202.00" departLane="51o_0" departPos="5.10" departSpeed="0.00" departDelay="18.00" arrival="335.00" arrivalLane="52i_0" arrivalPos="10.00" arrivalSpeed="11.19" duration="133.00" routeLength="1015.10" waitSteps="26" timeLoss="56.72" rerouteNo="0" devices="tripinfo_right_74" vType="typeWE" speedFactor="1.00" vaporized=""/>
    <tripinfo id="left_68" depart="193.00" departLane="52o_0" departPos="5.10" departSpeed="0.00" departDelay="21.00" arrival="336.00" arrivalLane="51i_0" arrivalPos="10.00" arrivalSpeed="11.04" duration="143.00" routeLength="1015.10" waitSteps="37" timeLoss="67.02" rerouteNo="0" devices="tripinfo_left_68" vType="typeWE" speedFactor="1.00" vaporized=""/>
    <tripinfo id="right_78" depart="214.00" departLane="51o_0" departPos="5.10" departSpeed="0.00" departDelay="17.00" arrival="337.00" arrivalLane="52i_0" arrivalPos="10.00" arrivalSpeed="11.56" duration="123.00" routeLength="1015.10" waitSteps="16" timeLoss="46.43" rerouteNo="0" devices="tripinfo_right_78" vType="typeWE" speedFactor="1.00" vaporized=""/>
    <tripinfo id="left_71" depart="199.00" departLane="52o_0" departPos="5.10" departSpeed="0.00" departDelay="23.00" arrival="339.00" arrivalLane="51i_0" arrivalPos="10.00" arrivalSpeed="11.45" duration="140.00" routeLength="1015.10" waitSteps="34" timeLoss="63.97" rerouteNo="0" devices="tripinfo_left_71" vType="typeWE" speedFactor="1.00" vaporized=""/>
    <tripinfo id="right_80" depart="220.00" departLane="51o_0" departPos="5.10" departSpeed="0.00" departDelay="20.00" arrival="339.00" arrivalLane="52i_0" arrivalPos="10.00" arrivalSpeed="11.61" duration="119.00" routeLength="1015.10" waitSteps="13" timeLoss="43.07" rerouteNo="0" devices="tripinfo_right_80" vType="typeWE" speedFactor="1.00" vaporized=""/>
    <tripinfo id="left_75" depart="210.00" departLane="52o_0" departPos="5.10" departSpeed="0.00" departDelay="25.00" arrival="341.00" arrivalLane="51i_0" arrivalPos="10.00" arrivalSpeed="11.33" duration="131.00" routeLength="1015.10" waitSteps="25" timeLoss="54.75" rerouteNo="0" devices="tripinfo_left_75" vType="typeWE" speedFactor="1.00" vaporized=""/>
    <tripinfo id="right_81" depart="228.00" departLane="51o_0" departPos="5.10" departSpeed="0.00" departDelay="21.00" arrival="341.00" arrivalLane="52i_0" arrivalPos="10.00" arrivalSpeed="11.71" duration="113.00" routeLength="1015.10" waitSteps="5" timeLoss="37.11" rerouteNo="0" devices="tripinfo_right_81" vType="typeWE" speedFactor="1.00" vaporized=""/>
    <tripinfo id="left_76" depart="217.00" departLane="52o_0" departPos="5.10" departSpeed="0.00" departDelay="23.00" arrival="343.00" arrivalLane="51i_0" arrivalPos="10.00" arrivalSpeed="11.65" duration="126.00" routeLength="1015.10" waitSteps="19" timeLoss="49.71" rerouteNo="0" devices="tripinfo_left_76" vType="typeWE" speedFactor="1.00" vaporized=""/>
    <tripinfo id="right_83" depart="238.00" departLane="51o_0" departPos="5.10" departSpeed="0.00" departDelay="27.00" arrival="343.00" arrivalLane="52i_0" arrivalPos="10.00" arrivalSpeed="11.48" duration="105.00" routeLength="1015.10" waitSteps="0" timeLoss="28.89" rerouteNo="0" devices="tripinfo_right_83" vType="typeWE" speedFactor="1.00" vaporized=""/>