<?xml version="1.0" encoding="UTF-8"?>

<!-- generated on Sun Mar  4 18:48:50 2018 by SUMO Version 0.32.0
<?xml version="1.0" encoding="UTF-8"?>

<configuration xmlns:xsi="http://www.w3.org/2001/XMLSchema-instance" xsi:noNamespaceSchemaLocation="http://sumo.dlr.de/xsd/sumoConfiguration.xsd">

    <input>
        <net-file value="data/cross.net.xml"/>
        <route-files value="data/cross.rou.xml"/>
        <additional-files value="data/cross.det.xml,data/cross.det2.xml"/>
    </input>

    <output>
        <tripinfo-output value="fgreen=50_tripinfo.xml"/>
    </output>

    <time>
        <begin value="0"/>
    </time>

    <report>
        <verbose value="true"/>
        <error-log value="errors"/>
        <no-step-log value="true"/>
    </report>

    <traci_server>
        <remote-port value="61368"/>
    </traci_server>

</configuration>
-->

<tripinfos xmlns:xsi="http://www.w3.org/2001/XMLSchema-instance" xsi:noNamespaceSchemaLocation="http://sumo.dlr.de/xsd/tripinfo_file.xsd">
    <tripinfo id="left_0" depart="0.00" departLane="52o_0" departPos="5.10" departSpeed="0.00" departDelay="0.00" arrival="92.00" arrivalLane="51i_0" arrivalPos="10.00" arrivalSpeed="11.50" duration="92.00" routeLength="1015.10" waitSteps="0" timeLoss="15.36" rerouteNo="0" devices="tripinfo_left_0" vType="typeWE" speedFactor="1.00" vaporized=""/>
    <tripinfo id="right_2" depart="3.00" departLane="51o_0" departPos="5.10" departSpeed="0.00" departDelay="0.00" arrival="93.00" arrivalLane="52i_0" arrivalPos="10.00" arrivalSpeed="10.85" duration="90.00" routeLength="1015.10" waitSteps="0" timeLoss="13.79" rerouteNo="0" devices="tripinfo_right_2" vType="typeWE" speedFactor="1.00" vaporized=""/>
    <tripinfo id="left_1" depart="5.00" departLane="52o_0" departPos="5.10" departSpeed="0.00" departDelay="3.00" arrival="96.00" arrivalLane="51i_0" arrivalPos="10.00" arrivalSpeed="11.52" duration="91.00" routeLength="1015.10" waitSteps="0" timeLoss="15.11" rerouteNo="0" devices="tripinfo_left_1" vType="typeWE" speedFactor="1.00" vaporized=""/>
    <tripinfo id="down_7" depart="13.00" departLane="54o_0" departPos="7.10" departSpeed="0.00" departDelay="0.00" arrival="108.00" arrivalLane="53i_0" arrivalPos="10.00" arrivalSpeed="11.53" duration="95.00" routeLength="1013.10" waitSteps="0" timeLoss="23.52" rerouteNo="0" devices="tripinfo_down_7" vType="typeNS" speedFactor="1.00" vaporized=""/>
    <tripinfo id="down_12" depart="29.00" departLane="54o_0" departPos="7.10" departSpeed="0.00" departDelay="0.00" arrival="119.00" arrivalLane="53i_0" arrivalPos="10.00" arrivalSpeed="11.57" duration="90.00" routeLength="1013.10" waitSteps="0" timeLoss="17.68" rerouteNo="0" devices="tripinfo_down_12" vType="typeNS" speedFactor="1.00" vaporized=""/>
    <tripinfo id="left_4" depart="10.00" departLane="52o_0" departPos="5.10" departSpeed="0.00" departDelay="6.00" arrival="169.00" arrivalLane="51i_0" arrivalPos="10.00" arrivalSpeed="11.20" duration="159.00" routeLength="1015.10" waitSteps="57" timeLoss="82.45" rerouteNo="0" devices="tripinfo_left_4" vType="typeWE" speedFactor="1.00" vaporized=""/>
    <tripinfo id="right_3" depart="8.00" departLane="51o_0" departPos="5.10" departSpeed="0.00" departDelay="4.00" arrival="169.00" arrivalLane="52i_0" arrivalPos="10.00" arrivalSpeed="11.63" duration="161.00" routeLength="1015.10" waitSteps="58" timeLoss="84.53" rerouteNo="0" devices="tripinfo_right_3" vType="typeWE" speedFactor="1.00" vaporized=""/>
    <tripinfo id="left_5" depart="15.00" departLane="52o_0" departPos="5.10" departSpeed="0.00" departDelay="9.00" arrival="171.00" arrivalLane="51i_0" arrivalPos="10.00" arrivalSpeed="11.71" duration="156.00" routeLength="1015.10" waitSteps="54" timeLoss="79.50" rerouteNo="0" devices="tripinfo_left_5" vType="typeWE" speedFactor="1.00" vaporized=""/>
    <tripinfo id="right_6" depart="13.00" departLane="51o_0" departPos="5.10" departSpeed="0.00" departDelay="4.00" arrival="171.00" arrivalLane="52i_0" arrivalPos="10.00" arrivalSpeed="11.66" duration="158.00" routeLength="1015.10" waitSteps="54" timeLoss="82.00" rerouteNo="0" devices="tripinfo_right_6" vType="typeWE" speedFactor="1.00" vaporized=""/>
    <tripinfo id="left_8" depart="20.00" departLane="52o_0" departPos="5.10" departSpeed="0.00" departDelay="5.00" arrival="173.00" arrivalLane="51i_0" arrivalPos="10.00" arrivalSpeed="11.66" duration="153.00" routeLength="1015.10" waitSteps="49" timeLoss="76.37" rerouteNo="0" devices="tripinfo_left_8" vType="typeWE" speedFactor="1.00" vaporized=""/>
    <tripinfo id="right_13" depart="30.00" departLane="51o_0" departPos="5.10" departSpeed="0.00" departDelay="0.00" arrival="173.00" arrivalLane="52i_0" arrivalPos="10.00" arrivalSpeed="11.55" duration="143.00" routeLength="1015.10" waitSteps="39" timeLoss="66.76" rerouteNo="0" devices="tripinfo_right_13" vType="typeWE" speedFactor="1.00" vaporized=""/>
    <tripinfo id="left_9" depart="25.00" departLane="52o_0" departPos="5.10" departSpeed="0.00" departDelay="6.00" arrival="174.00" arrivalLane="51i_0" arrivalPos="10.00" arrivalSpeed="11.66" duration="149.00" routeLength="1015.10" waitSteps="46" timeLoss="73.07" rerouteNo="0" devices="tripinfo_left_9" vType="typeWE" speedFactor="1.00" vaporized=""/>
    <tripinfo id="right_18" depart="42.00" departLane="51o_0" departPos="5.10" departSpeed="0.00" departDelay="0.00" arrival="175.00" arrivalLane="52i_0" arrivalPos="10.00" arrivalSpeed="11.70" duration="133.00" routeLength="1015.10" waitSteps="28" timeLoss="56.64" rerouteNo="0" devices="tripinfo_right_18" vType="typeWE" speedFactor="1.00" vaporized=""/>
    <tripinfo id="left_10" depart="30.00" departLane="52o_0" departPos="5.10" departSpeed="0.00" departDelay="8.00" arrival="176.00" arrivalLane="51i_0" arrivalPos="10.00" arrivalSpeed="11.74" duration="146.00" routeLength="1015.10" waitSteps="42" timeLoss="70.04" rerouteNo="0" devices="tripinfo_left_10" vType="typeWE" speedFactor="1.00" vaporized=""/>
    <tripinfo id="right_23" depart="55.00" departLane="51o_0" departPos="5.10" departSpeed="0.00" departDelay="0.00" arrival="177.00" arrivalLane="52i_0" arrivalPos="10.00" arrivalSpeed="11.74" duration="122.00" routeLength="1015.10" waitSteps="17" timeLoss="46.18" rerouteNo="0" devices="tripinfo_right_23" vType="typeWE" speedFactor="1.00" vaporized=""/>
    <tripinfo id="left_11" depart="35.00" departLane="52o_0" departPos="5.10" departSpeed="0.00" departDelay="6.00" arrival="178.00" arrivalLane="51i_0" arrivalPos="10.00" arrivalSpeed="11.78" duration="143.00" routeLength="1015.10" waitSteps="39" timeLoss="66.74" rerouteNo="0" devices="tripinfo_left_11" vType="typeWE" speedFactor="1.00" vaporized=""/>
    <tripinfo id="right_26" depart="61.00" departLane="51o_0" departPos="5.10" departSpeed="0.00" departDelay="0.00" arrival="179.00" arrivalLane="52i_0" arrivalPos="10.00" arrivalSpeed="11.33" duration="118.00" routeLength="1015.10" waitSteps="13" timeLoss="41.97" rerouteNo="0" devices="tripinfo_right_26" vType="typeWE" speedFactor="1.00" vaporized=""/>
    <tripinfo id="left_14" depart="40.00" departLane="52o_0" departPos="5.10" departSpeed="0.00" departDelay="9.00" arrival="181.00" arrivalLane="51i_0" arrivalPos="10.00" arrivalSpeed="11.78" duration="141.00" routeLength="1015.10" waitSteps="36" timeLoss="64.52" rerouteNo="0" devices="tripinfo_left_14" vType="typeWE" speedFactor="1.00" vaporized=""/>
    <tripinfo id="right_27" depart="69.00" departLane="51o_0" departPos="5.10" departSpeed="0.00" departDelay="0.00" arrival="181.00" arrivalLane="52i_0" arrivalPos="10.00" arrivalSpeed="11.75" duration="112.00" routeLength="1015.10" waitSteps="7" timeLoss="35.80" rerouteNo="0" devices="tripinfo_right_27" vType="typeWE" speedFactor="1.00" vaporized=""/>
    <tripinfo id="left_15" depart="46.00" departLane="52o_0" departPos="5.10" departSpeed="0.00" departDelay="13.00" arrival="183.00" arrivalLane="51i_0" arrivalPos="10.00" arrivalSpeed="11.53" duration="137.00" routeLength="1015.10" waitSteps="32" timeLoss="60.66" rerouteNo="0" devices="tripinfo_left_15" vType="typeWE" speedFactor="1.00" vaporized=""/>
    <tripinfo id="right_28" depart="76.00" departLane="51o_0" departPos="5.10" departSpeed="0.00" departDelay="0.00" arrival="183.00" arrivalLane="52i_0" arrivalPos="10.00" arrivalSpeed="11.15" duration="107.00" routeLength="1015.10" waitSteps="0" timeLoss="30.62" rerouteNo="0" devices="tripinfo_right_28" vType="typeWE" speedFactor="1.00" vaporized=""/>
    <tripinfo id="left_16" depart="51.00" departLane="52o_0" departPos="5.10" departSpeed="0.00" departDelay="16.00" arrival="185.00" arrivalLane="51i_0" arrivalPos="10.00" arrivalSpeed="11.59" duration="134.00" routeLength="1015.10" waitSteps="28" timeLoss="57.61" rerouteNo="0" devices="tripinfo_left_16" vType="typeWE" speedFactor="1.00" vaporized=""/>
    <tripinfo id="right_29" depart="81.00" departLane="51o_0" departPos="5.10" departSpeed="0.00" departDelay="4.00" arrival="185.00" arrivalLane="52i_0" arrivalPos="10.00" arrivalSpeed="11.31" duration="104.00" routeLength="1015.10" waitSteps="0" timeLoss="27.34" rerouteNo="0" devices="tripinfo_right_29" vType="typeWE" speedFactor="1.00" vaporized=""/>
    <tripinfo id="right_31" depart="86.00" departLane="51o_0" departPos="5.10" departSpeed="0.00" departDelay="2.00" arrival="186.00" arrivalLane="52i_0" arrivalPos="10.00" arrivalSpeed="11.31" duration="100.00" routeLength="1015.10" waitSteps="0" timeLoss="24.21" rerouteNo="0" devices="tripinfo_right_31" vType="typeWE" speedFactor="1.00" vaporized=""/>
    <tripinfo id="left_17" depart="56.00" departLane="52o_0" departPos="5.10" departSpeed="0.00" departDelay="15.00" arrival="187.00" arrivalLane="51i_0" arrivalPos="10.00" arrivalSpeed="11.57" duration="131.00" routeLength="1015.10" waitSteps="26" timeLoss="54.49" rerouteNo="0" devices="tripinfo_left_17" vType="typeWE" speedFactor="1.00" vaporized=""/>
    <tripinfo id="right_35" depart="92.00" departLane="51o_0" departPos="5.10" departSpeed="0.00" departDelay="0.00" arrival="188.00" arrivalLane="52i_0" arrivalPos="10.00" arrivalSpeed="11.48" duration="96.00" routeLength="1015.10" waitSteps="0" timeLoss="20.00" rerouteNo="0" devices="tripinfo_right_35" vType="typeWE" speedFactor="1.00" vaporized=""/>
    <tripinfo id="left_19" depart="61.00" departLane="52o_0" departPos="5.10" departSpeed="0.00" departDelay="16.00" arrival="189.00" arrivalLane="51i_0" arrivalPos="10.00" arrivalSpeed="11.71" duration="128.00" routeLength="1015.10" waitSteps="22" timeLoss="51.38" rerouteNo="0" devices="tripinfo_left_19" vType="typeWE" speedFactor="1.00" vaporized=""/>
    <tripinfo id="right_37" depart="99.00" departLane="51o_0" departPos="5.10" departSpeed="0.00" departDelay="0.00" arrival="190.00" arrivalLane="52i_0" arrivalPos="10.00" arrivalSpeed="11.57" duration="91.00" routeLength="1015.10" waitSteps="0" timeLoss="15.06" rerouteNo="0" devices="tripinfo_right_37" vType="typeWE" speedFactor="1.00" vaporized=""/>
    <tripinfo id="left_20" depart="66.00" departLane="52o_0" departPos="5.10" departSpeed="0.00" departDelay="20.00" arrival="191.00" arrivalLane="51i_0" arrivalPos="10.00" arrivalSpeed="11.61" duration="125.00" routeLength="1015.10" waitSteps="16" timeLoss="48.30" rerouteNo="0" devices="tripinfo_left_20" vType="typeWE" speedFactor="1.00" vaporized=""/>
    <tripinfo id="left_21" depart="71.00" departLane="52o_0" departPos="5.10" departSpeed="0.00" departDelay="20.00" arrival="192.00" arrivalLane="51i_0" arrivalPos="10.00" arrivalSpeed="11.32" duration="121.00" routeLength="1015.10" waitSteps="13" timeLoss="45.17" rerouteNo="0" devices="tripinfo_left_21" vType="typeWE" speedFactor="1.00" vaporized=""/>
    <tripinfo id="left_22" depart="77.00" departLane="52o_0" departPos="5.10" departSpeed="0.00" departDelay="24.00" arrival="194.00" arrivalLane="51i_0" arrivalPos="10.00" arrivalSpeed="11.73" duration="117.00" routeLength="1015.10" waitSteps="10" timeLoss="40.96" rerouteNo="0" devices="tripinfo_left_22" vType="typeWE" speedFactor="1.00" vaporized=""/>
    <tripinfo id="left_24" depart="82.00" departLane="52o_0" departPos="5.10" departSpeed="0.00" departDelay="26.00" arrival="196.00" arrivalLane="51i_0" arrivalPos="10.00" arrivalSpeed="11.14" duration="114.00" routeLength="1015.10" waitSteps="6" timeLoss="37.62" rerouteNo="0" devices="tripinfo_left_24" vType="typeWE" speedFactor="1.00" vaporized=""/>
    <tripinfo id="left_25" depart="87.00" departLane="52o_0" departPos="5.10" departSpeed="0.00" departDelay="29.00" arrival="198.00" arrivalLane="51i_0" arrivalPos="10.00" arrivalSpeed="11.22" duration="111.00" routeLength="1015.10" waitSteps="0" timeLoss="34.44" rerouteNo="0" devices="tripinfo_left_25" vType="typeWE" speedFactor="1.00" vaporized=""/>
    <tripinfo id="right_41" depart="106.00" departLane="51o_0" departPos="5.10" departSpeed="0.00" departDelay="0.00" arrival="198.00" arrivalLane="52i_0" arrivalPos="10.00" arrivalSpeed="11.57" duration="92.00" routeLength="1015.10" waitSteps="0" timeLoss="15.90" rerouteNo="0" devices="tripinfo_right_41" vType="typeWE" speedFactor="1.00" vaporized=""/>
    <tripinfo id="left_30" depart="93.00" departLane="52o_0" departPos="5.10" departSpeed="0.00" departDelay="15.00" arrival="199.00" arrivalLane="51i_0" arrivalPos="10.00" arrivalSpeed="11.05" duration="106.00" routeLength="1015.10" waitSteps="0" timeLoss="29.84" rerouteNo="0" devices="tripinfo_left_30" vType="typeWE" speedFactor="1.00" vaporized=""/>
    <tripinfo id="left_32" depart="98.00" departLane="52o_0" departPos="5.10" departSpeed="0.00" departDelay="13.00" arrival="202.00" arrivalLane="51i_0" arrivalPos="10.00" arrivalSpeed="11.51" duration="104.00" routeLength="1015.10" waitSteps="0" timeLoss="27.21" rerouteNo="0" devices="tripinfo_left_32" vType="typeWE" speedFactor="1.00" vaporized=""/>
    <tripinfo id="right_42" depart="111.00" departLane="51o_0" departPos="5.10" departSpeed="0.00" departDelay="3.00" arrival="202.00" arrivalLane="52i_0" arrivalPos="10.00" arrivalSpeed="11.65" duration="91.00" routeLength="1015.10" waitSteps="0" timeLoss="14.74" rerouteNo="0" devices="tripinfo_right_42" vType="typeWE" speedFactor="1.00" vaporized=""/>
    <tripinfo id="left_34" depart="103.00" departLane="52o_0" departPos="5.10" departSpeed="0.00" departDelay="12.00" arrival="203.00" arrivalLane="51i_0" arrivalPos="10.00" arrivalSpeed="11.24" duration="100.00" routeLength="1015.10" waitSteps="0" timeLoss="24.08" rerouteNo="0" devices="tripinfo_left_34" vType="typeWE" speedFactor="1.00" vaporized=""/>
    <tripinfo id="left_38" depart="108.00" departLane="52o_0" departPos="5.10" departSpeed="0.00" departDelay="9.00" arrival="205.00" arrivalLane="51i_0" arrivalPos="10.00" arrivalSpeed="11.34" duration="97.00" routeLength="1015.10" waitSteps="0" timeLoss="20.94" rerouteNo="0" devices="tripinfo_left_38" vType="typeWE" speedFactor="1.00" vaporized=""/>
    <tripinfo id="left_39" depart="113.00" departLane="52o_0" departPos="5.10" departSpeed="0.00" departDelay="12.00" arrival="207.00" arrivalLane="51i_0" arrivalPos="10.00" arrivalSpeed="11.40" duration="94.00" routeLength="1015.10" waitSteps="0" timeLoss="17.59" rerouteNo="0" devices="tripinfo_left_39" vType="typeWE" speedFactor="1.00" vaporized=""/>
    <tripinfo id="right_43" depart="116.00" departLane="51o_0" departPos="5.10" departSpeed="0.00" departDelay="5.00" arrival="207.00" arrivalLane="52i_0" arrivalPos="10.00" arrivalSpeed="11.35" duration="91.00" routeLength="1015.10" waitSteps="0" timeLoss="14.93" rerouteNo="0" devices="tripinfo_right_43" vType="typeWE" speedFactor="1.00" vaporized=""/>
    <tripinfo id="left_40" depart="118.00" departLane="52o_0" departPos="5.10" departSpeed="0.00" departDelay="14.00" arrival="209.00" arrivalLane="51i_0" arrivalPos="10.00" arrivalSpeed="11.65" duration="91.00" routeLength="1015.10" waitSteps="0" timeLoss="14.78" rerouteNo="0" devices="tripinfo_left_40" vType="typeWE" speedFactor="1.00" vaporized=""/>
    <tripinfo id="down_33" depart="89.00" departLane="54o_0" departPos="7.10" departSpeed="0.00" departDelay="0.00" arrival="224.00" arrivalLane="53i_0" arrivalPos="10.00" arrivalSpeed="11.52" duration="135.00" routeLength="1013.10" waitSteps="34" timeLoss="63.46" rerouteNo="0" devices="tripinfo_down_33" vType="typeNS" speedFactor="1.00" vaporized=""/>
    <tripinfo id="down_36" depart="96.00" departLane="54o_0" departPos="7.10" departSpeed="0.00" departDelay="0.00" arrival="227.00" arrivalLane="53i_0" arrivalPos="10.00" arrivalSpeed="11.22" duration="131.00" routeLength="1013.10" waitSteps="30" timeLoss="59.14" rerouteNo="0" devices="tripinfo_down_36" vType="typeNS" speedFactor="1.00" vaporized=""/>
    <tripinfo id="down_48" depart="122.00" departLane="54o_0" departPos="7.10" departSpeed="0.00" departDelay="0.00" arrival="229.00" arrivalLane="53i_0" arrivalPos="10.00" arrivalSpeed="11.44" duration="107.00" routeLength="1013.10" waitSteps="4" timeLoss="35.66" rerouteNo="0" devices="tripinfo_down_48" vType="typeNS" speedFactor="1.00" vaporized=""/>
    <tripinfo id="down_69" depart="172.00" departLane="54o_0" departPos="7.10" departSpeed="0.00" departDelay="0.00" arrival="263.00" arrivalLane="53i_0" arrivalPos="10.00" arrivalSpeed="11.56" duration="91.00" routeLength="1013.10" waitSteps="0" timeLoss="19.35" rerouteNo="0" devices="tripinfo_down_69" vType="typeNS" speedFactor="1.00" vaporized=""/>
    <tripinfo id="left_45" depart="123.00" departLane="52o_0" departPos="5.10" departSpeed="0.00" departDelay="9.00" arrival="280.00" arrivalLane="51i_0" arrivalPos="10.00" arrivalSpeed="11.79" duration="157.00" routeLength="1015.10" waitSteps="56" timeLoss="81.04" rerouteNo="0" devices="tripinfo_left_45" vType="typeWE" speedFactor="1.00" vaporized=""/>
    <tripinfo id="right_44" depart="121.00" departLane="51o_0" departPos="5.10" departSpeed="0.00" departDelay="7.00" arrival="280.00" arrivalLane="52i_0" arrivalPos="10.00" arrivalSpeed="11.77" duration="159.00" routeLength="1015.10" waitSteps="56" timeLoss="82.42" rerouteNo="0" devices="tripinfo_right_44" vType="typeWE" speedFactor="1.00" vaporized=""/>
    <tripinfo id="left_46" depart="128.00" departLane="52o_0" departPos="5.10" departSpeed="0.00" departDelay="10.00" arrival="282.00" arrivalLane="51i_0" arrivalPos="10.00" arrivalSpeed="11.28" duration="154.00" routeLength="1015.10" waitSteps="51" timeLoss="77.96" rerouteNo="0" devices="tripinfo_left_46" vType="typeWE" speedFactor="1.00" vaporized=""/>
    <tripinfo id="right_49" depart="126.00" departLane="51o_0" departPos="5.10" departSpeed="0.00" departDelay="1.00" arrival="283.00" arrivalLane="52i_0" arrivalPos="10.00" arrivalSpeed="11.59" duration="157.00" routeLength="1015.10" waitSteps="52" timeLoss="80.45" rerouteNo="0" devices="tripinfo_right_49" vType="typeWE" speedFactor="1.00" vaporized=""/>
    <tripinfo id="left_47" depart="133.00" departLane="52o_0" departPos="5.10" departSpeed="0.00" departDelay="14.00" arrival="284.00" arrivalLane="51i_0" arrivalPos="10.00" arrivalSpeed="11.34" duration="151.00" routeLength="1015.10" waitSteps="48" timeLoss="74.66" rerouteNo="0" devices="tripinfo_left_47" vType="typeWE" speedFactor="1.00" vaporized=""/>
    <tripinfo id="left_50" depart="138.00" departLane="52o_0" departPos="5.10" departSpeed="0.00" departDelay="7.00" arrival="286.00" arrivalLane="51i_0" arrivalPos="10.00" arrivalSpeed="11.35" duration="148.00" routeLength="1015.10" waitSteps="45" timeLoss="72.05" rerouteNo="0" devices="tripinfo_left_50" vType="typeWE" speedFactor="1.00" vaporized=""/>
    <tripinfo id="right_51" depart="135.00" departLane="51o_0" departPos="5.10" departSpeed="0.00" departDelay="0.00" arrival="286.00" arrivalLane="52i_0" arrivalPos="10.00" arrivalSpeed="11.70" duration="151.00" routeLength="1015.10" waitSteps="46" timeLoss="74.36" rerouteNo="0" devices="tripinfo_right_51" vType="typeWE" speedFactor="1.00" vaporized=""/>
    <tripinfo id="right_53" depart="140.00" departLane="51o_0" departPos="5.10" departSpeed="0.00" departDelay="2.00" arrival="287.00" arrivalLane="52i_0" arrivalPos="10.00" arrivalSpeed="11.22" duration="147.00" routeLength="1015.10" waitSteps="43" timeLoss="71.23" rerouteNo="0" devices="tripinfo_right_53" vType="typeWE" speedFactor="1.00" vaporized=""/>
    <tripinfo id="left_52" depart="143.00" departLane="52o_0" departPos="5.10" departSpeed="0.00" departDelay="8.00" arrival="288.00" arrivalLane="51i_0" arrivalPos="10.00" arrivalSpeed="11.45" duration="145.00" routeLength="1015.10" waitSteps="41" timeLoss="69.02" rerouteNo="0" devices="tripinfo_left_52" vType="typeWE" speedFactor="1.00" vaporized=""/>
    <tripinfo id="right_57" depart="145.00" departLane="51o_0" departPos="5.10" departSpeed="0.00" departDelay="1.00" arrival="289.00" arrivalLane="52i_0" arrivalPos="10.00" arrivalSpeed="11.66" duration="144.00" routeLength="1015.10" waitSteps="39" timeLoss="67.98" rerouteNo="0" devices="tripinfo_right_57" vType="typeWE" speedFactor="1.00" vaporized=""/>
    <tripinfo id="left_54" depart="148.00" departLane="52o_0" departPos="5.10" departSpeed="0.00" departDelay="10.00" arrival="291.00" arrivalLane="51i_0" arrivalPos="10.00" arrivalSpeed="11.83" duration="143.00" routeLength="1015.10" waitSteps="38" timeLoss="66.39" rerouteNo="0" devices="tripinfo_left_54" vType="typeWE" speedFactor="1.00" vaporized=""/>
    <tripinfo id="right_58" depart="150.00" departLane="51o_0" departPos="5.10" departSpeed="0.00" departDelay="5.00" arrival="291.00" arrivalLane="52i_0" arrivalPos="10.00" arrivalSpeed="11.59" duration="141.00" routeLength="1015.10" waitSteps="35" timeLoss="64.99" rerouteNo="0" devices="tripinfo_right_58" vType="typeWE" speedFactor="1.00" vaporized=""/>
    <tripinfo id="left_55" depart="153.00" departLane="52o_0" departPos="5.10" departSpeed="0.00" departDelay="11.00" arrival="292.00" arrivalLane="51i_0" arrivalPos="10.00" arrivalSpeed="11.07" duration="139.00" routeLength="1015.10" waitSteps="34" timeLoss="62.87" rerouteNo="0" devices="tripinfo_left_55" vType="typeWE" speedFactor="1.00" vaporized=""/>
    <tripinfo id="right_60" depart="155.00" departLane="51o_0" departPos="5.10" departSpeed="0.00" departDelay="0.00" arrival="293.00" arrivalLane="52i_0" arrivalPos="10.00" arrivalSpeed="11.80" duration="138.00" routeLength="1015.10" waitSteps="33" timeLoss="61.69" rerouteNo="0" devices="tripinfo_right_60" vType="typeWE" speedFactor="1.00" vaporized=""/>
    <tripinfo id="left_56" depart="158.00" departLane="52o_0" departPos="5.10" departSpeed="0.00" departDelay="15.00" arrival="295.00" arrivalLane="51i_0" arrivalPos="10.00" arrivalSpeed="11.71" duration="137.00" routeLength="1015.10" waitSteps="30" timeLoss="60.37" rerouteNo="0" devices="tripinfo_left_56" vType="typeWE" speedFactor="1.00" vaporized=""/>
    <tripinfo id="right_65" depart="174.00" departLane="51o_0" departPos="5.10" departSpeed="0.00" departDelay="7.00" arrival="295.00" arrivalLane="52i_0" arrivalPos="10.00" arrivalSpeed="11.49" duration="121.00" routeLength="1015.10" waitSteps="14" timeLoss="44.92" rerouteNo="0" devices="tripinfo_right_65" vType="typeWE" speedFactor="1.00" vaporized=""/>
    <tripinfo id="left_59" depart="163.00" departLane="52o_0" departPos="5.10" departSpeed="0.00" departDelay="10.00" arrival="296.00" arrivalLane="51i_0" arrivalPos="10.00" arrivalSpeed="11.61" duration="133.00" routeLength="1015.10" waitSteps="28" timeLoss="56.94" rerouteNo="0" devices="tripinfo_left_59" vType="typeWE" speedFactor="1.00" vaporized=""/>
    <tripinfo id="right_66" depart="192.00" departLane="51o_0" departPos="5.10" departSpeed="0.00" departDelay="24.00" arrival="297.00" arrivalLane="52i_0" arrivalPos="10.00" arrivalSpeed="11.78" duration="105.00" routeLength="1015.10" waitSteps="0" timeLoss="28.66" rerouteNo="0" devices="tripinfo_right_66" vType="typeWE" speedFactor="1.00" vaporized=""/>
    <tripinfo id="left_61" depart="169.00" departLane="52o_0" departPos="5.10" departSpeed="0.00" departDelay="13.00" arrival="298.00" arrivalLane="51i_0" arrivalPos="10.00" arrivalSpeed="11.60" duration="129.00" routeLength="1015.10" waitSteps="24" timeLoss="53.24" rerouteNo="0" devices="tripinfo_left_61" vType="typeWE" speedFactor="1.00" vaporized=""/>
    <tripinfo id="right_70" depart="199.00" departLane="51o_0" departPos="5.10" departSpeed="0.00" departDelay="23.00" arrival="299.00" arrivalLane="52i_0" arrivalPos="10.00" arrivalSpeed="11.50" duration="100.00" routeLength="1015.10" waitSteps="0" timeLoss="23.43" rerouteNo="0" devices="tripinfo_right_70" vType="typeWE" speedFactor="1.00" vaporized=""/>
    <tripinfo id="left_62" depart="175.00" departLane="52o_0" departPos="5.10" departSpeed="0.00" departDelay="15.00" arrival="300.00" arrivalLane="51i_0" arrivalPos="10.00" arrivalSpeed="11.38" duration="125.00" routeLength="1015.10" waitSteps="19" timeLoss="49.06" rerouteNo="0" devices="tripinfo_left_62" vType="typeWE" speedFactor="1.00" vaporized=""/>
    <tripinfo id="right_72" depart="209.00" departLane="51o_0" departPos="5.10" departSpeed="0.00" departDelay="28.00" arrival="301.00" arrivalLane="52i_0" arrivalPos="10.00" arrivalSpeed="11.40" duration="92.00" routeLength="1015.10" waitSteps="0" timeLoss="15.32" rerouteNo="0" devices="tripinfo_right_72" vType="typeWE" speedFactor="1.00" vaporized=""/>
    <tripinfo id="left_63" depart="186.00" departLane="52o_0" departPos="5.10" departSpeed="0.00" departDelay="22.00" arrival="302.00" arrivalLane="51i_0" arrivalPos="10.00" arrivalSpeed="11.73" duration="116.00" routeLength="1015.10" waitSteps="10" timeLoss="40.13" rerouteNo="0" devices="tripinfo_left_63" vType="typeWE" speedFactor="1.00" vaporized=""/>
    <tripinfo id="left_64" depart="191.00" departLane="52o_0" departPos="5.10" departSpeed="0.00" departDelay="25.00" arrival="304.00" arrivalLane="51i_0" arrivalPos="10.00" arrivalSpeed="11.34" duration="113.00" routeLength="1015.10" waitSteps="6" timeLoss="37.08" rerouteNo="0" devices="tripinfo_left_64" vType="typeWE" speedFactor="1.00" vaporized=""/>
    <tripinfo id="left_67" depart="196.00" departLane="52o_0" departPos="5.10" departSpeed="0.00" departDelay="27.00" arrival="306.00" arrivalLane="51i_0" arrivalPos="10.00" arrivalSpeed="11.49" duration="110.00" routeLength="1015.10" waitSteps="1" timeLoss="33.65" rerouteNo="0" devices="tripinfo_left_67" vType="typeWE" speedFactor="1.00" vaporized=""/>
    <tripinfo id="right_73" depart="214.00" departLane="51o_0" departPos="5.10" departSpeed="0.00" departDelay="31.00" arrival="306.00" arrivalLane="52i_0" arrivalPos="10.00" arrivalSpeed="11.26" duration="92.00" routeLength="1015.10" waitSteps="0" timeLoss="15.67" rerouteNo="0" devices="tripinfo_right_73" vType="typeWE" speedFactor="1.00" vaporized=""/>
    <tripinfo id="left_68" depart="202.00" departLane="52o_0" departPos="5.10" departSpeed="0.00" departDelay="30.00" arrival="308.00" arrivalLane="51i_0" arrivalPos="10.00" arrivalSpeed="11.53" duration="106.00" routeLength="1015.10" waitSteps="0" timeLoss="29.48" rerouteNo="0" devices="tripinfo_left_68" vType="typeWE" speedFactor="1.00" vaporized=""/>
    <tripinfo id="left_71" depart="207.00" departLane="52o_0" departPos="5.10" departSpeed="0.00" departDelay="31.00" arrival="310.00" arrivalLane="51i_0" arrivalPos="10.00" arrivalSpeed="11.76" duration="103.00" routeLength="1015.10" waitSteps="0" timeLoss="26.33" rerouteNo="0" devices="tripinfo_left_71" vType="typeWE" speedFactor="1.00" vaporized=""/>
    <tripinfo id="left_75" depart="212.00" departLane="52o_0" departPos="5.10" departSpeed="0.00" departDelay="27.00" arrival="311.00" arrivalLane="51i_0" arrivalPos="10.00" arrivalSpeed="11.19" duration="99.00" routeLength="1015.10" waitSteps="0" timeLoss="23.23" rerouteNo="0" devices="tripinfo_left_75" vType="typeWE" speedFactor="1.00" vaporized=""/>
    <tripinfo id="right_74" depart="220.00" departLane="51o_0" departPos="5.10" departSpeed="0.00" departDelay="36.00" arrival="311.00" arrivalLane="52i_0" arrivalPos="10.00" arrivalSpeed="11.53" duration="91.00" routeLength="1015.10" waitSteps="0" timeLoss="14.68" rerouteNo="0" devices="tripinfo_right_74" vType="typeWE" speedFactor="1.00" vaporized=""/>
    <tripinfo id="left_76" depart="217.00" departLane="52o_0" departPos="5.10" departSpeed="0.00" departDelay="23.00" arrival="313.00" arrivalLane="51i_0" arrivalPos="10.00" arrivalSpeed="11.36" duration="96.00" routeLength="1015.10" waitSteps="0" timeLoss="19.74" rerouteNo="0" devices="tripinfo_left_76" vType="typeWE" speedFactor="1.00" vaporized=""/>
    <tripinfo id="left_77" depart="222.00" departLane="52o_0" departPos="5.10" departSpeed="0.00" departDelay="26.00" arrival="315.00" arrivalLane="51i_0" arrivalPos="10.00" arrivalSpeed="11.61" duration="93.00" routeLength="1015.10" waitSteps="0" timeLoss="16.50" rerouteNo="0" devices="tripinfo_left_77" vType="typeWE" speedFactor="1.00" vaporized=""/>
    <tripinfo id="right_78" depart="225.00" departLane="51o_0" departPos="5.10" departSpeed="0.00" departDelay="28.00" arrival="316.00" arrivalLane="52i_0" arrivalPos="10.00" arrivalSpeed="11.38" duration="91.00" routeLength="1015.10" waitSteps="0" timeLoss="14.84" rerouteNo="0" devices="tripinfo_right_78" vType="typeWE" speedFactor="1.00" vaporized=""/>
    <tripinfo id="left_79" depart="227.00" departLane="52o_0" departPos="5.10" departSpeed="0.00" departDelay="28.00" arrival="318.00" arrivalLane="51i_0" arrivalPos="10.00" arrivalSpeed="11.15" duration="91.00" routeLength="1015.10" waitSteps="0" timeLoss="14.70" rerouteNo="0" devices="tripinfo_left_79" vType="typeWE" speedFactor="1.00" vaporized=""/>
    <tripinfo id="right_80" depart="230.00" departLane="51o_0" departPos="5.10" departSpeed="0.00" departDelay="30.00" arrival="322.00" arrivalLane="52i_0" arrivalPos="10.00" arrivalSpeed="11.81" duration="92.00" routeLength="1015.10" waitSteps="0" timeLoss="15.28" rerouteNo="0" devices="tripinfo_right_80" vType="typeWE" speedFactor="1.00" vaporized=""/>