<?xml version="1.0" encoding="UTF-8"?>

<!-- generated on Sun Mar  4 18:46:40 2018 by SUMO Version 0.32.0
<?xml version="1.0" encoding="UTF-8"?>

<configuration xmlns:xsi="http://www.w3.org/2001/XMLSchema-instance" xsi:noNamespaceSchemaLocation="http://sumo.dlr.de/xsd/sumoConfiguration.xsd">

    <input>
        <net-file value="data/cross.net.xml"/>
        <route-files value="data/cross.rou.xml"/>
        <additional-files value="data/cross.det.xml,data/cross.det2.xml"/>
    </input>

    <output>
        <tripinfo-output value="fgreen=35_tripinfo.xml"/>
    </output>

    <time>
        <begin value="0"/>
    </time>

    <report>
        <verbose value="true"/>
        <error-log value="errors"/>
        <no-step-log value="true"/>
    </report>

    <traci_server>
        <remote-port value="61349"/>
    </traci_server>

</configuration>
-->

<tripinfos xmlns:xsi="http://www.w3.org/2001/XMLSchema-instance" xsi:noNamespaceSchemaLocation="http://sumo.dlr.de/xsd/tripinfo_file.xsd">
    <tripinfo id="down_7" depart="13.00" departLane="54o_0" departPos="7.10" departSpeed="0.00" departDelay="0.00" arrival="102.00" arrivalLane="53i_0" arrivalPos="10.00" arrivalSpeed="11.45" duration="89.00" routeLength="1013.10" waitSteps="0" timeLoss="17.38" rerouteNo="0" devices="tripinfo_down_7" vType="typeNS" speedFactor="1.00" vaporized=""/>
    <tripinfo id="down_12" depart="29.00" departLane="54o_0" departPos="7.10" departSpeed="0.00" departDelay="0.00" arrival="119.00" arrivalLane="53i_0" arrivalPos="10.00" arrivalSpeed="11.64" duration="90.00" routeLength="1013.10" waitSteps="0" timeLoss="18.23" rerouteNo="0" devices="tripinfo_down_12" vType="typeNS" speedFactor="1.00" vaporized=""/>
    <tripinfo id="left_0" depart="0.00" departLane="52o_0" departPos="5.10" departSpeed="0.00" departDelay="0.00" arrival="138.00" arrivalLane="51i_0" arrivalPos="10.00" arrivalSpeed="11.45" duration="138.00" routeLength="1015.10" waitSteps="36" timeLoss="62.03" rerouteNo="0" devices="tripinfo_left_0" vType="typeWE" speedFactor="1.00" vaporized=""/>
    <tripinfo id="right_2" depart="3.00" departLane="51o_0" departPos="5.10" departSpeed="0.00" departDelay="0.00" arrival="138.00" arrivalLane="52i_0" arrivalPos="10.00" arrivalSpeed="11.30" duration="135.00" routeLength="1015.10" waitSteps="34" timeLoss="58.73" rerouteNo="0" devices="tripinfo_right_2" vType="typeWE" speedFactor="1.00" vaporized=""/>
    <tripinfo id="left_1" depart="5.00" departLane="52o_0" departPos="5.10" departSpeed="0.00" departDelay="3.00" arrival="140.00" arrivalLane="51i_0" arrivalPos="10.00" arrivalSpeed="11.58" duration="135.00" routeLength="1015.10" waitSteps="32" timeLoss="58.80" rerouteNo="0" devices="tripinfo_left_1" vType="typeWE" speedFactor="1.00" vaporized=""/>
    <tripinfo id="right_3" depart="8.00" departLane="51o_0" departPos="5.10" departSpeed="0.00" departDelay="4.00" arrival="141.00" arrivalLane="52i_0" arrivalPos="10.00" arrivalSpeed="11.35" duration="133.00" routeLength="1015.10" waitSteps="30" timeLoss="57.10" rerouteNo="0" devices="tripinfo_right_3" vType="typeWE" speedFactor="1.00" vaporized=""/>
    <tripinfo id="left_4" depart="10.00" departLane="52o_0" departPos="5.10" departSpeed="0.00" departDelay="6.00" arrival="142.00" arrivalLane="51i_0" arrivalPos="10.00" arrivalSpeed="11.55" duration="132.00" routeLength="1015.10" waitSteps="30" timeLoss="55.67" rerouteNo="0" devices="tripinfo_left_4" vType="typeWE" speedFactor="1.00" vaporized=""/>
    <tripinfo id="left_5" depart="15.00" departLane="52o_0" departPos="5.10" departSpeed="0.00" departDelay="9.00" arrival="144.00" arrivalLane="51i_0" arrivalPos="10.00" arrivalSpeed="11.54" duration="129.00" routeLength="1015.10" waitSteps="27" timeLoss="52.72" rerouteNo="0" devices="tripinfo_left_5" vType="typeWE" speedFactor="1.00" vaporized=""/>
    <tripinfo id="right_6" depart="13.00" departLane="51o_0" departPos="5.10" departSpeed="0.00" departDelay="4.00" arrival="144.00" arrivalLane="52i_0" arrivalPos="10.00" arrivalSpeed="11.59" duration="131.00" routeLength="1015.10" waitSteps="25" timeLoss="54.71" rerouteNo="0" devices="tripinfo_right_6" vType="typeWE" speedFactor="1.00" vaporized=""/>
    <tripinfo id="left_8" depart="20.00" departLane="52o_0" departPos="5.10" departSpeed="0.00" departDelay="5.00" arrival="146.00" arrivalLane="51i_0" arrivalPos="10.00" arrivalSpeed="10.73" duration="126.00" routeLength="1015.10" waitSteps="23" timeLoss="50.02" rerouteNo="0" devices="tripinfo_left_8" vType="typeWE" speedFactor="1.00" vaporized=""/>
    <tripinfo id="right_13" depart="30.00" departLane="51o_0" departPos="5.10" departSpeed="0.00" departDelay="0.00" arrival="146.00" arrivalLane="52i_0" arrivalPos="10.00" arrivalSpeed="11.48" duration="116.00" routeLength="1015.10" waitSteps="10" timeLoss="39.49" rerouteNo="0" devices="tripinfo_right_13" vType="typeWE" speedFactor="1.00" vaporized=""/>
    <tripinfo id="right_18" depart="42.00" departLane="51o_0" departPos="5.10" departSpeed="0.00" departDelay="0.00" arrival="147.00" arrivalLane="52i_0" arrivalPos="10.00" arrivalSpeed="10.80" duration="105.00" routeLength="1015.10" waitSteps="0" timeLoss="28.88" rerouteNo="0" devices="tripinfo_right_18" vType="typeWE" speedFactor="1.00" vaporized=""/>
    <tripinfo id="left_9" depart="25.00" departLane="52o_0" departPos="5.10" departSpeed="0.00" departDelay="6.00" arrival="148.00" arrivalLane="51i_0" arrivalPos="10.00" arrivalSpeed="11.35" duration="123.00" routeLength="1015.10" waitSteps="18" timeLoss="47.14" rerouteNo="0" devices="tripinfo_left_9" vType="typeWE" speedFactor="1.00" vaporized=""/>
    <tripinfo id="right_23" depart="55.00" departLane="51o_0" departPos="5.10" departSpeed="0.00" departDelay="0.00" arrival="149.00" arrivalLane="52i_0" arrivalPos="10.00" arrivalSpeed="11.45" duration="94.00" routeLength="1015.10" waitSteps="0" timeLoss="18.06" rerouteNo="0" devices="tripinfo_right_23" vType="typeWE" speedFactor="1.00" vaporized=""/>
    <tripinfo id="left_10" depart="30.00" departLane="52o_0" departPos="5.10" departSpeed="0.00" departDelay="8.00" arrival="150.00" arrivalLane="51i_0" arrivalPos="10.00" arrivalSpeed="11.72" duration="120.00" routeLength="1015.10" waitSteps="16" timeLoss="43.88" rerouteNo="0" devices="tripinfo_left_10" vType="typeWE" speedFactor="1.00" vaporized=""/>
    <tripinfo id="left_11" depart="35.00" departLane="52o_0" departPos="5.10" departSpeed="0.00" departDelay="6.00" arrival="152.00" arrivalLane="51i_0" arrivalPos="10.00" arrivalSpeed="10.86" duration="117.00" routeLength="1015.10" waitSteps="12" timeLoss="41.03" rerouteNo="0" devices="tripinfo_left_11" vType="typeWE" speedFactor="1.00" vaporized=""/>
    <tripinfo id="right_26" depart="61.00" departLane="51o_0" departPos="5.10" departSpeed="0.00" departDelay="0.00" arrival="153.00" arrivalLane="52i_0" arrivalPos="10.00" arrivalSpeed="11.28" duration="92.00" routeLength="1015.10" waitSteps="0" timeLoss="15.84" rerouteNo="0" devices="tripinfo_right_26" vType="typeWE" speedFactor="1.00" vaporized=""/>
    <tripinfo id="left_14" depart="40.00" departLane="52o_0" departPos="5.10" departSpeed="0.00" departDelay="9.00" arrival="155.00" arrivalLane="51i_0" arrivalPos="10.00" arrivalSpeed="11.28" duration="115.00" routeLength="1015.10" waitSteps="7" timeLoss="38.66" rerouteNo="0" devices="tripinfo_left_14" vType="typeWE" speedFactor="1.00" vaporized=""/>
    <tripinfo id="left_15" depart="46.00" departLane="52o_0" departPos="5.10" departSpeed="0.00" departDelay="13.00" arrival="157.00" arrivalLane="51i_0" arrivalPos="10.00" arrivalSpeed="11.35" duration="111.00" routeLength="1015.10" waitSteps="4" timeLoss="34.56" rerouteNo="0" devices="tripinfo_left_15" vType="typeWE" speedFactor="1.00" vaporized=""/>
    <tripinfo id="left_16" depart="51.00" departLane="52o_0" departPos="5.10" departSpeed="0.00" departDelay="16.00" arrival="159.00" arrivalLane="51i_0" arrivalPos="10.00" arrivalSpeed="11.51" duration="108.00" routeLength="1015.10" waitSteps="0" timeLoss="31.43" rerouteNo="0" devices="tripinfo_left_16" vType="typeWE" speedFactor="1.00" vaporized=""/>
    <tripinfo id="right_27" depart="69.00" departLane="51o_0" departPos="5.10" departSpeed="0.00" departDelay="0.00" arrival="160.00" arrivalLane="52i_0" arrivalPos="10.00" arrivalSpeed="10.94" duration="91.00" routeLength="1015.10" waitSteps="0" timeLoss="14.84" rerouteNo="0" devices="tripinfo_right_27" vType="typeWE" speedFactor="1.00" vaporized=""/>
    <tripinfo id="left_17" depart="56.00" departLane="52o_0" departPos="5.10" departSpeed="0.00" departDelay="15.00" arrival="160.00" arrivalLane="51i_0" arrivalPos="10.00" arrivalSpeed="11.55" duration="104.00" routeLength="1015.10" waitSteps="0" timeLoss="28.15" rerouteNo="0" devices="tripinfo_left_17" vType="typeWE" speedFactor="1.00" vaporized=""/>
    <tripinfo id="left_19" depart="61.00" departLane="52o_0" departPos="5.10" departSpeed="0.00" departDelay="16.00" arrival="162.00" arrivalLane="51i_0" arrivalPos="10.00" arrivalSpeed="11.59" duration="101.00" routeLength="1015.10" waitSteps="1" timeLoss="24.97" rerouteNo="0" devices="tripinfo_left_19" vType="typeWE" speedFactor="1.00" vaporized=""/>
    <tripinfo id="left_20" depart="66.00" departLane="52o_0" departPos="5.10" departSpeed="0.00" departDelay="20.00" arrival="164.00" arrivalLane="51i_0" arrivalPos="10.00" arrivalSpeed="11.52" duration="98.00" routeLength="1015.10" waitSteps="1" timeLoss="21.80" rerouteNo="0" devices="tripinfo_left_20" vType="typeWE" speedFactor="1.00" vaporized=""/>
    <tripinfo id="down_33" depart="89.00" departLane="54o_0" departPos="7.10" departSpeed="0.00" departDelay="0.00" arrival="178.00" arrivalLane="53i_0" arrivalPos="10.00" arrivalSpeed="11.36" duration="89.00" routeLength="1013.10" waitSteps="0" timeLoss="17.46" rerouteNo="0" devices="tripinfo_down_33" vType="typeNS" speedFactor="1.00" vaporized=""/>
    <tripinfo id="down_36" depart="96.00" departLane="54o_0" departPos="7.10" departSpeed="0.00" departDelay="0.00" arrival="184.00" arrivalLane="53i_0" arrivalPos="10.00" arrivalSpeed="11.45" duration="88.00" routeLength="1013.10" waitSteps="0" timeLoss="16.00" rerouteNo="0" devices="tripinfo_down_36" vType="typeNS" speedFactor="1.00" vaporized=""/>
    <tripinfo id="left_21" depart="72.00" departLane="52o_0" departPos="5.10" departSpeed="0.00" departDelay="21.00" arrival="220.00" arrivalLane="51i_0" arrivalPos="10.00" arrivalSpeed="11.46" duration="148.00" routeLength="1015.10" waitSteps="45" timeLoss="71.83" rerouteNo="0" devices="tripinfo_left_21" vType="typeWE" speedFactor="1.00" vaporized=""/>
    <tripinfo id="right_28" depart="76.00" departLane="51o_0" departPos="5.10" departSpeed="0.00" departDelay="0.00" arrival="221.00" arrivalLane="52i_0" arrivalPos="10.00" arrivalSpeed="11.54" duration="145.00" routeLength="1015.10" waitSteps="43" timeLoss="68.78" rerouteNo="0" devices="tripinfo_right_28" vType="typeWE" speedFactor="1.00" vaporized=""/>
    <tripinfo id="left_22" depart="77.00" departLane="52o_0" departPos="5.10" departSpeed="0.00" departDelay="24.00" arrival="222.00" arrivalLane="51i_0" arrivalPos="10.00" arrivalSpeed="10.81" duration="145.00" routeLength="1015.10" waitSteps="43" timeLoss="68.98" rerouteNo="0" devices="tripinfo_left_22" vType="typeWE" speedFactor="1.00" vaporized=""/>
    <tripinfo id="right_29" depart="81.00" departLane="51o_0" departPos="5.10" departSpeed="0.00" departDelay="4.00" arrival="223.00" arrivalLane="52i_0" arrivalPos="10.00" arrivalSpeed="11.26" duration="142.00" routeLength="1015.10" waitSteps="37" timeLoss="65.55" rerouteNo="0" devices="tripinfo_right_29" vType="typeWE" speedFactor="1.00" vaporized=""/>
    <tripinfo id="left_24" depart="82.00" departLane="52o_0" departPos="5.10" departSpeed="0.00" departDelay="26.00" arrival="224.00" arrivalLane="51i_0" arrivalPos="10.00" arrivalSpeed="10.95" duration="142.00" routeLength="1015.10" waitSteps="39" timeLoss="65.93" rerouteNo="0" devices="tripinfo_left_24" vType="typeWE" speedFactor="1.00" vaporized=""/>
    <tripinfo id="right_31" depart="86.00" departLane="51o_0" departPos="5.10" departSpeed="0.00" departDelay="2.00" arrival="225.00" arrivalLane="52i_0" arrivalPos="10.00" arrivalSpeed="11.60" duration="139.00" routeLength="1015.10" waitSteps="34" timeLoss="62.34" rerouteNo="0" devices="tripinfo_right_31" vType="typeWE" speedFactor="1.00" vaporized=""/>
    <tripinfo id="left_25" depart="88.00" departLane="52o_0" departPos="5.10" departSpeed="0.00" departDelay="30.00" arrival="227.00" arrivalLane="51i_0" arrivalPos="10.00" arrivalSpeed="11.57" duration="139.00" routeLength="1015.10" waitSteps="35" timeLoss="62.70" rerouteNo="0" devices="tripinfo_left_25" vType="typeWE" speedFactor="1.00" vaporized=""/>
    <tripinfo id="right_35" depart="92.00" departLane="51o_0" departPos="5.10" departSpeed="0.00" departDelay="0.00" arrival="227.00" arrivalLane="52i_0" arrivalPos="10.00" arrivalSpeed="11.42" duration="135.00" routeLength="1015.10" waitSteps="31" timeLoss="58.91" rerouteNo="0" devices="tripinfo_right_35" vType="typeWE" speedFactor="1.00" vaporized=""/>
    <tripinfo id="left_30" depart="93.00" departLane="52o_0" departPos="5.10" departSpeed="0.00" departDelay="15.00" arrival="229.00" arrivalLane="51i_0" arrivalPos="10.00" arrivalSpeed="11.50" duration="136.00" routeLength="1015.10" waitSteps="31" timeLoss="59.41" rerouteNo="0" devices="tripinfo_left_30" vType="typeWE" speedFactor="1.00" vaporized=""/>
    <tripinfo id="right_37" depart="99.00" departLane="51o_0" departPos="5.10" departSpeed="0.00" departDelay="0.00" arrival="229.00" arrivalLane="52i_0" arrivalPos="10.00" arrivalSpeed="11.27" duration="130.00" routeLength="1015.10" waitSteps="25" timeLoss="54.27" rerouteNo="0" devices="tripinfo_right_37" vType="typeWE" speedFactor="1.00" vaporized=""/>
    <tripinfo id="left_32" depart="98.00" departLane="52o_0" departPos="5.10" departSpeed="0.00" departDelay="13.00" arrival="230.00" arrivalLane="51i_0" arrivalPos="10.00" arrivalSpeed="11.83" duration="132.00" routeLength="1015.10" waitSteps="27" timeLoss="56.19" rerouteNo="0" devices="tripinfo_left_32" vType="typeWE" speedFactor="1.00" vaporized=""/>
    <tripinfo id="right_41" depart="106.00" departLane="51o_0" departPos="5.10" departSpeed="0.00" departDelay="0.00" arrival="231.00" arrivalLane="52i_0" arrivalPos="10.00" arrivalSpeed="11.43" duration="125.00" routeLength="1015.10" waitSteps="21" timeLoss="48.93" rerouteNo="0" devices="tripinfo_right_41" vType="typeWE" speedFactor="1.00" vaporized=""/>
    <tripinfo id="left_34" depart="103.00" departLane="52o_0" departPos="5.10" departSpeed="0.00" departDelay="12.00" arrival="232.00" arrivalLane="51i_0" arrivalPos="10.00" arrivalSpeed="11.20" duration="129.00" routeLength="1015.10" waitSteps="24" timeLoss="53.03" rerouteNo="0" devices="tripinfo_left_34" vType="typeWE" speedFactor="1.00" vaporized=""/>
    <tripinfo id="right_42" depart="111.00" departLane="51o_0" departPos="5.10" departSpeed="0.00" departDelay="3.00" arrival="233.00" arrivalLane="52i_0" arrivalPos="10.00" arrivalSpeed="11.45" duration="122.00" routeLength="1015.10" waitSteps="16" timeLoss="46.10" rerouteNo="0" devices="tripinfo_right_42" vType="typeWE" speedFactor="1.00" vaporized=""/>
    <tripinfo id="left_38" depart="108.00" departLane="52o_0" departPos="5.10" departSpeed="0.00" departDelay="9.00" arrival="234.00" arrivalLane="51i_0" arrivalPos="10.00" arrivalSpeed="11.53" duration="126.00" routeLength="1015.10" waitSteps="19" timeLoss="49.76" rerouteNo="0" devices="tripinfo_left_38" vType="typeWE" speedFactor="1.00" vaporized=""/>
    <tripinfo id="right_43" depart="117.00" departLane="51o_0" departPos="5.10" departSpeed="0.00" departDelay="6.00" arrival="235.00" arrivalLane="52i_0" arrivalPos="10.00" arrivalSpeed="11.39" duration="118.00" routeLength="1015.10" waitSteps="11" timeLoss="41.92" rerouteNo="0" devices="tripinfo_right_43" vType="typeWE" speedFactor="1.00" vaporized=""/>
    <tripinfo id="left_39" depart="113.00" departLane="52o_0" departPos="5.10" departSpeed="0.00" departDelay="12.00" arrival="236.00" arrivalLane="51i_0" arrivalPos="10.00" arrivalSpeed="11.56" duration="123.00" routeLength="1015.10" waitSteps="18" timeLoss="46.63" rerouteNo="0" devices="tripinfo_left_39" vType="typeWE" speedFactor="1.00" vaporized=""/>
    <tripinfo id="right_44" depart="122.00" departLane="51o_0" departPos="5.10" departSpeed="0.00" departDelay="8.00" arrival="237.00" arrivalLane="52i_0" arrivalPos="10.00" arrivalSpeed="11.53" duration="115.00" routeLength="1015.10" waitSteps="9" timeLoss="38.63" rerouteNo="0" devices="tripinfo_right_44" vType="typeWE" speedFactor="1.00" vaporized=""/>
    <tripinfo id="left_40" depart="118.00" departLane="52o_0" departPos="5.10" departSpeed="0.00" departDelay="14.00" arrival="238.00" arrivalLane="51i_0" arrivalPos="10.00" arrivalSpeed="11.42" duration="120.00" routeLength="1015.10" waitSteps="14" timeLoss="43.44" rerouteNo="0" devices="tripinfo_left_40" vType="typeWE" speedFactor="1.00" vaporized=""/>
    <tripinfo id="right_49" depart="127.00" departLane="51o_0" departPos="5.10" departSpeed="0.00" departDelay="2.00" arrival="239.00" arrivalLane="52i_0" arrivalPos="10.00" arrivalSpeed="11.39" duration="112.00" routeLength="1015.10" waitSteps="6" timeLoss="35.41" rerouteNo="0" devices="tripinfo_right_49" vType="typeWE" speedFactor="1.00" vaporized=""/>
    <tripinfo id="left_45" depart="123.00" departLane="52o_0" departPos="5.10" departSpeed="0.00" departDelay="9.00" arrival="240.00" arrivalLane="51i_0" arrivalPos="10.00" arrivalSpeed="11.36" duration="117.00" routeLength="1015.10" waitSteps="11" timeLoss="40.34" rerouteNo="0" devices="tripinfo_left_45" vType="typeWE" speedFactor="1.00" vaporized=""/>
    <tripinfo id="right_51" depart="135.00" departLane="51o_0" departPos="5.10" departSpeed="0.00" departDelay="0.00" arrival="240.00" arrivalLane="52i_0" arrivalPos="10.00" arrivalSpeed="11.38" duration="105.00" routeLength="1015.10" waitSteps="0" timeLoss="29.16" rerouteNo="0" devices="tripinfo_right_51" vType="typeWE" speedFactor="1.00" vaporized=""/>
    <tripinfo id="left_46" depart="128.00" departLane="52o_0" departPos="5.10" departSpeed="0.00" departDelay="10.00" arrival="242.00" arrivalLane="51i_0" arrivalPos="10.00" arrivalSpeed="11.42" duration="114.00" routeLength="1015.10" waitSteps="9" timeLoss="37.44" rerouteNo="0" devices="tripinfo_left_46" vType="typeWE" speedFactor="1.00" vaporized=""/>
    <tripinfo id="right_53" depart="144.00" departLane="51o_0" departPos="5.10" departSpeed="0.00" departDelay="6.00" arrival="242.00" arrivalLane="52i_0" arrivalPos="10.00" arrivalSpeed="11.55" duration="98.00" routeLength="1015.10" waitSteps="0" timeLoss="22.00" rerouteNo="0" devices="tripinfo_right_53" vType="typeWE" speedFactor="1.00" vaporized=""/>
    <tripinfo id="left_47" depart="133.00" departLane="52o_0" departPos="5.10" departSpeed="0.00" departDelay="14.00" arrival="243.00" arrivalLane="51i_0" arrivalPos="10.00" arrivalSpeed="11.02" duration="110.00" routeLength="1015.10" waitSteps="4" timeLoss="33.91" rerouteNo="0" devices="tripinfo_left_47" vType="typeWE" speedFactor="1.00" vaporized=""/>
    <tripinfo id="right_57" depart="150.00" departLane="51o_0" departPos="5.10" departSpeed="0.00" departDelay="6.00" arrival="244.00" arrivalLane="52i_0" arrivalPos="10.00" arrivalSpeed="11.44" duration="94.00" routeLength="1015.10" waitSteps="0" timeLoss="17.91" rerouteNo="0" devices="tripinfo_right_57" vType="typeWE" speedFactor="1.00" vaporized=""/>
    <tripinfo id="left_50" depart="138.00" departLane="52o_0" departPos="5.10" departSpeed="0.00" departDelay="7.00" arrival="245.00" arrivalLane="51i_0" arrivalPos="10.00" arrivalSpeed="10.96" duration="107.00" routeLength="1015.10" waitSteps="1" timeLoss="30.84" rerouteNo="0" devices="tripinfo_left_50" vType="typeWE" speedFactor="1.00" vaporized=""/>
    <tripinfo id="left_52" depart="147.00" departLane="52o_0" departPos="5.10" departSpeed="0.00" departDelay="12.00" arrival="250.00" arrivalLane="51i_0" arrivalPos="10.00" arrivalSpeed="11.73" duration="103.00" routeLength="1015.10" waitSteps="0" timeLoss="26.54" rerouteNo="0" devices="tripinfo_left_52" vType="typeWE" speedFactor="1.00" vaporized=""/>
    <tripinfo id="down_48" depart="122.00" departLane="54o_0" departPos="7.10" departSpeed="0.00" departDelay="0.00" arrival="262.00" arrivalLane="53i_0" arrivalPos="10.00" arrivalSpeed="11.33" duration="140.00" routeLength="1013.10" waitSteps="40" timeLoss="68.19" rerouteNo="0" devices="tripinfo_down_48" vType="typeNS" speedFactor="1.00" vaporized=""/>
    <tripinfo id="down_69" depart="172.00" departLane="54o_0" departPos="7.10" departSpeed="0.00" departDelay="0.00" arrival="264.00" arrivalLane="53i_0" arrivalPos="10.00" arrivalSpeed="11.43" duration="92.00" routeLength="1013.10" waitSteps="0" timeLoss="19.93" rerouteNo="0" devices="tripinfo_down_69" vType="typeNS" speedFactor="1.00" vaporized=""/>
    <tripinfo id="left_54" depart="153.00" departLane="52o_0" departPos="5.10" departSpeed="0.00" departDelay="15.00" arrival="302.00" arrivalLane="51i_0" arrivalPos="10.00" arrivalSpeed="11.56" duration="149.00" routeLength="1015.10" waitSteps="43" timeLoss="73.01" rerouteNo="0" devices="tripinfo_left_54" vType="typeWE" speedFactor="1.00" vaporized=""/>
    <tripinfo id="right_58" depart="160.00" departLane="51o_0" departPos="5.10" departSpeed="0.00" departDelay="15.00" arrival="302.00" arrivalLane="52i_0" arrivalPos="10.00" arrivalSpeed="11.45" duration="142.00" routeLength="1015.10" waitSteps="41" timeLoss="65.67" rerouteNo="0" devices="tripinfo_right_58" vType="typeWE" speedFactor="1.00" vaporized=""/>
    <tripinfo id="left_55" depart="158.00" departLane="52o_0" departPos="5.10" departSpeed="0.00" departDelay="16.00" arrival="304.00" arrivalLane="51i_0" arrivalPos="10.00" arrivalSpeed="11.37" duration="146.00" routeLength="1015.10" waitSteps="42" timeLoss="70.11" rerouteNo="0" devices="tripinfo_left_55" vType="typeWE" speedFactor="1.00" vaporized=""/>
    <tripinfo id="right_60" depart="165.00" departLane="51o_0" departPos="5.10" departSpeed="0.00" departDelay="10.00" arrival="305.00" arrivalLane="52i_0" arrivalPos="10.00" arrivalSpeed="11.27" duration="140.00" routeLength="1015.10" waitSteps="37" timeLoss="63.72" rerouteNo="0" devices="tripinfo_right_60" vType="typeWE" speedFactor="1.00" vaporized=""/>
    <tripinfo id="left_56" depart="163.00" departLane="52o_0" departPos="5.10" departSpeed="0.00" departDelay="20.00" arrival="307.00" arrivalLane="51i_0" arrivalPos="10.00" arrivalSpeed="11.14" duration="144.00" routeLength="1015.10" waitSteps="40" timeLoss="68.14" rerouteNo="0" devices="tripinfo_left_56" vType="typeWE" speedFactor="1.00" vaporized=""/>
    <tripinfo id="right_65" depart="170.00" departLane="51o_0" departPos="5.10" departSpeed="0.00" departDelay="3.00" arrival="307.00" arrivalLane="52i_0" arrivalPos="10.00" arrivalSpeed="11.40" duration="137.00" routeLength="1015.10" waitSteps="34" timeLoss="60.95" rerouteNo="0" devices="tripinfo_right_65" vType="typeWE" speedFactor="1.00" vaporized=""/>
    <tripinfo id="left_59" depart="168.00" departLane="52o_0" departPos="5.10" departSpeed="0.00" departDelay="15.00" arrival="309.00" arrivalLane="51i_0" arrivalPos="10.00" arrivalSpeed="11.77" duration="141.00" routeLength="1015.10" waitSteps="37" timeLoss="65.10" rerouteNo="0" devices="tripinfo_left_59" vType="typeWE" speedFactor="1.00" vaporized=""/>
    <tripinfo id="right_66" depart="175.00" departLane="51o_0" departPos="5.10" departSpeed="0.00" departDelay="7.00" arrival="309.00" arrivalLane="52i_0" arrivalPos="10.00" arrivalSpeed="11.52" duration="134.00" routeLength="1015.10" waitSteps="28" timeLoss="57.61" rerouteNo="0" devices="tripinfo_right_66" vType="typeWE" speedFactor="1.00" vaporized=""/>
    <tripinfo id="left_61" depart="173.00" departLane="52o_0" departPos="5.10" departSpeed="0.00" departDelay="17.00" arrival="311.00" arrivalLane="51i_0" arrivalPos="10.00" arrivalSpeed="11.45" duration="138.00" routeLength="1015.10" waitSteps="34" timeLoss="62.16" rerouteNo="0" devices="tripinfo_left_61" vType="typeWE" speedFactor="1.00" vaporized=""/>
    <tripinfo id="right_70" depart="180.00" departLane="51o_0" departPos="5.10" departSpeed="0.00" departDelay="4.00" arrival="311.00" arrivalLane="52i_0" arrivalPos="10.00" arrivalSpeed="11.46" duration="131.00" routeLength="1015.10" waitSteps="26" timeLoss="54.57" rerouteNo="0" devices="tripinfo_right_70" vType="typeWE" speedFactor="1.00" vaporized=""/>
    <tripinfo id="left_62" depart="178.00" departLane="52o_0" departPos="5.10" departSpeed="0.00" departDelay="18.00" arrival="313.00" arrivalLane="51i_0" arrivalPos="10.00" arrivalSpeed="11.27" duration="135.00" routeLength="1015.10" waitSteps="30" timeLoss="59.14" rerouteNo="0" devices="tripinfo_left_62" vType="typeWE" speedFactor="1.00" vaporized=""/>
    <tripinfo id="right_72" depart="185.00" departLane="51o_0" departPos="5.10" departSpeed="0.00" departDelay="4.00" arrival="314.00" arrivalLane="52i_0" arrivalPos="10.00" arrivalSpeed="11.47" duration="129.00" routeLength="1015.10" waitSteps="24" timeLoss="53.04" rerouteNo="0" devices="tripinfo_right_72" vType="typeWE" speedFactor="1.00" vaporized=""/>
    <tripinfo id="left_63" depart="183.00" departLane="52o_0" departPos="5.10" departSpeed="0.00" departDelay="19.00" arrival="315.00" arrivalLane="51i_0" arrivalPos="10.00" arrivalSpeed="11.74" duration="132.00" routeLength="1015.10" waitSteps="27" timeLoss="55.87" rerouteNo="0" devices="tripinfo_left_63" vType="typeWE" speedFactor="1.00" vaporized=""/>
    <tripinfo id="right_73" depart="190.00" departLane="51o_0" departPos="5.10" departSpeed="0.00" departDelay="7.00" arrival="316.00" arrivalLane="52i_0" arrivalPos="10.00" arrivalSpeed="10.88" duration="126.00" routeLength="1015.10" waitSteps="19" timeLoss="49.92" rerouteNo="0" devices="tripinfo_right_73" vType="typeWE" speedFactor="1.00" vaporized=""/>
    <tripinfo id="left_64" depart="188.00" departLane="52o_0" departPos="5.10" departSpeed="0.00" departDelay="22.00" arrival="317.00" arrivalLane="51i_0" arrivalPos="10.00" arrivalSpeed="11.26" duration="129.00" routeLength="1015.10" waitSteps="22" timeLoss="52.95" rerouteNo="0" devices="tripinfo_left_64" vType="typeWE" speedFactor="1.00" vaporized=""/>
    <tripinfo id="right_74" depart="195.00" departLane="51o_0" departPos="5.10" departSpeed="0.00" departDelay="11.00" arrival="318.00" arrivalLane="52i_0" arrivalPos="10.00" arrivalSpeed="11.45" duration="123.00" routeLength="1015.10" waitSteps="16" timeLoss="47.00" rerouteNo="0" devices="tripinfo_right_74" vType="typeWE" speedFactor="1.00" vaporized=""/>
    <tripinfo id="left_67" depart="193.00" departLane="52o_0" departPos="5.10" departSpeed="0.00" departDelay="24.00" arrival="320.00" arrivalLane="51i_0" arrivalPos="10.00" arrivalSpeed="11.54" duration="127.00" routeLength="1015.10" waitSteps="20" timeLoss="50.41" rerouteNo="0" devices="tripinfo_left_67" vType="typeWE" speedFactor="1.00" vaporized=""/>
    <tripinfo id="right_78" depart="200.00" departLane="51o_0" departPos="5.10" departSpeed="0.00" departDelay="3.00" arrival="320.00" arrivalLane="52i_0" arrivalPos="10.00" arrivalSpeed="11.46" duration="120.00" routeLength="1015.10" waitSteps="15" timeLoss="43.91" rerouteNo="0" devices="tripinfo_right_78" vType="typeWE" speedFactor="1.00" vaporized=""/>
    <tripinfo id="left_68" depart="198.00" departLane="52o_0" departPos="5.10" departSpeed="0.00" departDelay="26.00" arrival="321.00" arrivalLane="51i_0" arrivalPos="10.00" arrivalSpeed="11.49" duration="123.00" routeLength="1015.10" waitSteps="16" timeLoss="47.23" rerouteNo="0" devices="tripinfo_left_68" vType="typeWE" speedFactor="1.00" vaporized=""/>
    <tripinfo id="right_80" depart="205.00" departLane="51o_0" departPos="5.10" departSpeed="0.00" departDelay="5.00" arrival="322.00" arrivalLane="52i_0" arrivalPos="10.00" arrivalSpeed="11.68" duration="117.00" routeLength="1015.10" waitSteps="10" timeLoss="40.76" rerouteNo="0" devices="tripinfo_right_80" vType="typeWE" speedFactor="1.00" vaporized=""/>
    <tripinfo id="left_71" depart="203.00" departLane="52o_0" departPos="5.10" departSpeed="0.00" departDelay="27.00" arrival="323.00" arrivalLane="51i_0" arrivalPos="10.00" arrivalSpeed="11.43" duration="120.00" routeLength="1015.10" waitSteps="13" timeLoss="44.17" rerouteNo="0" devices="tripinfo_left_71" vType="typeWE" speedFactor="1.00" vaporized=""/>
    <tripinfo id="right_81" depart="210.00" departLane="51o_0" departPos="5.10" departSpeed="0.00" departDelay="3.00" arrival="324.00" arrivalLane="52i_0" arrivalPos="10.00" arrivalSpeed="11.60" duration="114.00" routeLength="1015.10" waitSteps="7" timeLoss="37.61" rerouteNo="0" devices="tripinfo_right_81" vType="typeWE" speedFactor="1.00" vaporized=""/>
    <tripinfo id="left_75" depart="208.00" departLane="52o_0" departPos="5.10" departSpeed="0.00" departDelay="23.00" arrival="325.00" arrivalLane="51i_0" arrivalPos="10.00" arrivalSpeed="11.50" duration="117.00" routeLength="1015.10" waitSteps="8" timeLoss="40.70" rerouteNo="0" devices="tripinfo_left_75" vType="typeWE" speedFactor="1.00" vaporized=""/>
    <tripinfo id="right_83" depart="215.00" departLane="51o_0" departPos="5.10" departSpeed="0.00" departDelay="4.00" arrival="326.00" arrivalLane="52i_0" arrivalPos="10.00" arrivalSpeed="11.67" duration="111.00" routeLength="1015.10" waitSteps="3" timeLoss="34.34" rerouteNo="0" devices="tripinfo_right_83" vType="typeWE" speedFactor="1.00" vaporized=""/>
    <tripinfo id="right_85" depart="220.00" departLane="51o_0" departPos="5.10" departSpeed="0.00" departDelay="8.00" arrival="327.00" arrivalLane="52i_0" arrivalPos="10.00" arrivalSpeed="10.99" duration="107.00" routeLength="1015.10" waitSteps="0" timeLoss="30.85" rerouteNo="0" devices="tripinfo_right_85" vType="typeWE" speedFactor="1.00" vaporized=""/>