<?xml version="1.0" encoding="UTF-8"?>

<!-- generated on Sun Mar  4 18:41:21 2018 by SUMO Version 0.32.0
<?xml version="1.0" encoding="UTF-8"?>

<configuration xmlns:xsi="http://www.w3.org/2001/XMLSchema-instance" xsi:noNamespaceSchemaLocation="http://sumo.dlr.de/xsd/sumoConfiguration.xsd">

    <input>
        <net-file value="data/cross.net.xml"/>
        <route-files value="data/cross.rou.xml"/>
        <additional-files value="data/cross.det.xml,data/cross.det2.xml"/>
    </input>

    <output>
        <tripinfo-output value="fgreen=15_tripinfo.xml"/>
    </output>

    <time>
        <begin value="0"/>
    </time>

    <report>
        <verbose value="true"/>
        <error-log value="errors"/>
        <no-step-log value="true"/>
    </report>

    <traci_server>
        <remote-port value="61326"/>
    </traci_server>

</configuration>
-->

<tripinfos xmlns:xsi="http://www.w3.org/2001/XMLSchema-instance" xsi:noNamespaceSchemaLocation="http://sumo.dlr.de/xsd/tripinfo_file.xsd">
    <tripinfo id="left_0" depart="0.00" departLane="52o_0" departPos="5.10" departSpeed="0.00" departDelay="0.00" arrival="92.00" arrivalLane="51i_0" arrivalPos="10.00" arrivalSpeed="11.45" duration="92.00" routeLength="1015.10" waitSteps="0" timeLoss="15.28" rerouteNo="0" devices="tripinfo_left_0" vType="typeWE" speedFactor="1.00" vaporized=""/>
    <tripinfo id="right_2" depart="3.00" departLane="51o_0" departPos="5.10" departSpeed="0.00" departDelay="0.00" arrival="94.00" arrivalLane="52i_0" arrivalPos="10.00" arrivalSpeed="11.34" duration="91.00" routeLength="1015.10" waitSteps="0" timeLoss="14.20" rerouteNo="0" devices="tripinfo_right_2" vType="typeWE" speedFactor="1.00" vaporized=""/>
    <tripinfo id="left_1" depart="5.00" departLane="52o_0" departPos="5.10" departSpeed="0.00" departDelay="3.00" arrival="96.00" arrivalLane="51i_0" arrivalPos="10.00" arrivalSpeed="11.48" duration="91.00" routeLength="1015.10" waitSteps="0" timeLoss="15.09" rerouteNo="0" devices="tripinfo_left_1" vType="typeWE" speedFactor="1.00" vaporized=""/>
    <tripinfo id="right_3" depart="8.00" departLane="51o_0" departPos="5.10" departSpeed="0.00" departDelay="4.00" arrival="100.00" arrivalLane="52i_0" arrivalPos="10.00" arrivalSpeed="11.76" duration="92.00" routeLength="1015.10" waitSteps="0" timeLoss="15.40" rerouteNo="0" devices="tripinfo_right_3" vType="typeWE" speedFactor="1.00" vaporized=""/>
    <tripinfo id="left_4" depart="10.00" departLane="52o_0" departPos="5.10" departSpeed="0.00" departDelay="6.00" arrival="101.00" arrivalLane="51i_0" arrivalPos="10.00" arrivalSpeed="11.49" duration="91.00" routeLength="1015.10" waitSteps="0" timeLoss="14.71" rerouteNo="0" devices="tripinfo_left_4" vType="typeWE" speedFactor="1.00" vaporized=""/>
    <tripinfo id="right_6" depart="13.00" departLane="51o_0" departPos="5.10" departSpeed="0.00" departDelay="4.00" arrival="105.00" arrivalLane="52i_0" arrivalPos="10.00" arrivalSpeed="11.27" duration="92.00" routeLength="1015.10" waitSteps="0" timeLoss="15.19" rerouteNo="0" devices="tripinfo_right_6" vType="typeWE" speedFactor="1.00" vaporized=""/>
    <tripinfo id="left_5" depart="15.00" departLane="52o_0" departPos="5.10" departSpeed="0.00" departDelay="9.00" arrival="107.00" arrivalLane="51i_0" arrivalPos="10.00" arrivalSpeed="11.22" duration="92.00" routeLength="1015.10" waitSteps="0" timeLoss="16.02" rerouteNo="0" devices="tripinfo_left_5" vType="typeWE" speedFactor="1.00" vaporized=""/>
    <tripinfo id="down_7" depart="13.00" departLane="54o_0" departPos="7.10" departSpeed="0.00" departDelay="0.00" arrival="120.00" arrivalLane="53i_0" arrivalPos="10.00" arrivalSpeed="11.73" duration="107.00" routeLength="1013.10" waitSteps="6" timeLoss="34.97" rerouteNo="0" devices="tripinfo_down_7" vType="typeNS" speedFactor="1.00" vaporized=""/>
    <tripinfo id="down_12" depart="29.00" departLane="54o_0" departPos="7.10" departSpeed="0.00" departDelay="0.00" arrival="122.00" arrivalLane="53i_0" arrivalPos="10.00" arrivalSpeed="11.57" duration="93.00" routeLength="1013.10" waitSteps="0" timeLoss="20.91" rerouteNo="0" devices="tripinfo_down_12" vType="typeNS" speedFactor="1.00" vaporized=""/>
    <tripinfo id="right_13" depart="30.00" departLane="51o_0" departPos="5.10" departSpeed="0.00" departDelay="0.00" arrival="140.00" arrivalLane="52i_0" arrivalPos="10.00" arrivalSpeed="11.50" duration="110.00" routeLength="1015.10" waitSteps="8" timeLoss="33.99" rerouteNo="0" devices="tripinfo_right_13" vType="typeWE" speedFactor="1.00" vaporized=""/>
    <tripinfo id="left_8" depart="20.00" departLane="52o_0" departPos="5.10" departSpeed="0.00" departDelay="5.00" arrival="141.00" arrivalLane="51i_0" arrivalPos="10.00" arrivalSpeed="11.61" duration="121.00" routeLength="1015.10" waitSteps="18" timeLoss="44.52" rerouteNo="0" devices="tripinfo_left_8" vType="typeWE" speedFactor="1.00" vaporized=""/>
    <tripinfo id="left_9" depart="25.00" departLane="52o_0" departPos="5.10" departSpeed="0.00" departDelay="6.00" arrival="143.00" arrivalLane="51i_0" arrivalPos="10.00" arrivalSpeed="11.60" duration="118.00" routeLength="1015.10" waitSteps="13" timeLoss="42.23" rerouteNo="0" devices="tripinfo_left_9" vType="typeWE" speedFactor="1.00" vaporized=""/>
    <tripinfo id="right_18" depart="42.00" departLane="51o_0" departPos="5.10" departSpeed="0.00" departDelay="0.00" arrival="143.00" arrivalLane="52i_0" arrivalPos="10.00" arrivalSpeed="11.19" duration="101.00" routeLength="1015.10" waitSteps="0" timeLoss="24.39" rerouteNo="0" devices="tripinfo_right_18" vType="typeWE" speedFactor="1.00" vaporized=""/>
    <tripinfo id="left_10" depart="30.00" departLane="52o_0" departPos="5.10" departSpeed="0.00" departDelay="8.00" arrival="145.00" arrivalLane="51i_0" arrivalPos="10.00" arrivalSpeed="11.89" duration="115.00" routeLength="1015.10" waitSteps="11" timeLoss="38.84" rerouteNo="0" devices="tripinfo_left_10" vType="typeWE" speedFactor="1.00" vaporized=""/>
    <tripinfo id="right_23" depart="55.00" departLane="51o_0" departPos="5.10" departSpeed="0.00" departDelay="0.00" arrival="146.00" arrivalLane="52i_0" arrivalPos="10.00" arrivalSpeed="11.54" duration="91.00" routeLength="1015.10" waitSteps="0" timeLoss="14.72" rerouteNo="0" devices="tripinfo_right_23" vType="typeWE" speedFactor="1.00" vaporized=""/>
    <tripinfo id="left_11" depart="35.00" departLane="52o_0" departPos="5.10" departSpeed="0.00" departDelay="6.00" arrival="147.00" arrivalLane="51i_0" arrivalPos="10.00" arrivalSpeed="11.39" duration="112.00" routeLength="1015.10" waitSteps="7" timeLoss="35.82" rerouteNo="0" devices="tripinfo_left_11" vType="typeWE" speedFactor="1.00" vaporized=""/>
    <tripinfo id="left_14" depart="40.00" departLane="52o_0" departPos="5.10" departSpeed="0.00" departDelay="9.00" arrival="149.00" arrivalLane="51i_0" arrivalPos="10.00" arrivalSpeed="11.64" duration="109.00" routeLength="1015.10" waitSteps="3" timeLoss="32.71" rerouteNo="0" devices="tripinfo_left_14" vType="typeWE" speedFactor="1.00" vaporized=""/>
    <tripinfo id="left_15" depart="46.00" departLane="52o_0" departPos="5.10" departSpeed="0.00" departDelay="13.00" arrival="182.00" arrivalLane="51i_0" arrivalPos="10.00" arrivalSpeed="10.74" duration="136.00" routeLength="1015.10" waitSteps="23" timeLoss="60.00" rerouteNo="0" devices="tripinfo_left_15" vType="typeWE" speedFactor="1.00" vaporized=""/>
    <tripinfo id="right_26" depart="61.00" departLane="51o_0" departPos="5.10" departSpeed="0.00" departDelay="0.00" arrival="182.00" arrivalLane="52i_0" arrivalPos="10.00" arrivalSpeed="11.52" duration="121.00" routeLength="1015.10" waitSteps="18" timeLoss="45.20" rerouteNo="0" devices="tripinfo_right_26" vType="typeWE" speedFactor="1.00" vaporized=""/>
    <tripinfo id="left_16" depart="51.00" departLane="52o_0" departPos="5.10" departSpeed="0.00" departDelay="16.00" arrival="184.00" arrivalLane="51i_0" arrivalPos="10.00" arrivalSpeed="11.02" duration="133.00" routeLength="1015.10" waitSteps="23" timeLoss="57.05" rerouteNo="0" devices="tripinfo_left_16" vType="typeWE" speedFactor="1.00" vaporized=""/>
    <tripinfo id="right_27" depart="69.00" departLane="51o_0" departPos="5.10" departSpeed="0.00" departDelay="0.00" arrival="185.00" arrivalLane="52i_0" arrivalPos="10.00" arrivalSpeed="11.71" duration="116.00" routeLength="1015.10" waitSteps="13" timeLoss="39.63" rerouteNo="0" devices="tripinfo_right_27" vType="typeWE" speedFactor="1.00" vaporized=""/>
    <tripinfo id="left_17" depart="56.00" departLane="52o_0" departPos="5.10" departSpeed="0.00" departDelay="15.00" arrival="186.00" arrivalLane="51i_0" arrivalPos="10.00" arrivalSpeed="11.37" duration="130.00" routeLength="1015.10" waitSteps="23" timeLoss="54.14" rerouteNo="0" devices="tripinfo_left_17" vType="typeWE" speedFactor="1.00" vaporized=""/>
    <tripinfo id="right_28" depart="76.00" departLane="51o_0" departPos="5.10" departSpeed="0.00" departDelay="0.00" arrival="187.00" arrivalLane="52i_0" arrivalPos="10.00" arrivalSpeed="11.36" duration="111.00" routeLength="1015.10" waitSteps="6" timeLoss="34.58" rerouteNo="0" devices="tripinfo_right_28" vType="typeWE" speedFactor="1.00" vaporized=""/>
    <tripinfo id="left_19" depart="61.00" departLane="52o_0" departPos="5.10" departSpeed="0.00" departDelay="16.00" arrival="189.00" arrivalLane="51i_0" arrivalPos="10.00" arrivalSpeed="11.61" duration="128.00" routeLength="1015.10" waitSteps="21" timeLoss="51.73" rerouteNo="0" devices="tripinfo_left_19" vType="typeWE" speedFactor="1.00" vaporized=""/>
    <tripinfo id="right_29" depart="81.00" departLane="51o_0" departPos="5.10" departSpeed="0.00" departDelay="4.00" arrival="189.00" arrivalLane="52i_0" arrivalPos="10.00" arrivalSpeed="11.46" duration="108.00" routeLength="1015.10" waitSteps="4" timeLoss="31.73" rerouteNo="0" devices="tripinfo_right_29" vType="typeWE" speedFactor="1.00" vaporized=""/>
    <tripinfo id="left_20" depart="66.00" departLane="52o_0" departPos="5.10" departSpeed="0.00" departDelay="20.00" arrival="191.00" arrivalLane="51i_0" arrivalPos="10.00" arrivalSpeed="11.78" duration="125.00" routeLength="1015.10" waitSteps="19" timeLoss="48.76" rerouteNo="0" devices="tripinfo_left_20" vType="typeWE" speedFactor="1.00" vaporized=""/>
    <tripinfo id="right_31" depart="86.00" departLane="51o_0" departPos="5.10" departSpeed="0.00" departDelay="2.00" arrival="191.00" arrivalLane="52i_0" arrivalPos="10.00" arrivalSpeed="11.29" duration="105.00" routeLength="1015.10" waitSteps="1" timeLoss="28.59" rerouteNo="0" devices="tripinfo_right_31" vType="typeWE" speedFactor="1.00" vaporized=""/>
    <tripinfo id="down_33" depart="89.00" departLane="54o_0" departPos="7.10" departSpeed="0.00" departDelay="0.00" arrival="204.00" arrivalLane="53i_0" arrivalPos="10.00" arrivalSpeed="11.69" duration="115.00" routeLength="1013.10" waitSteps="16" timeLoss="43.43" rerouteNo="0" devices="tripinfo_down_33" vType="typeNS" speedFactor="1.00" vaporized=""/>
    <tripinfo id="down_36" depart="96.00" departLane="54o_0" departPos="7.10" departSpeed="0.00" departDelay="0.00" arrival="206.00" arrivalLane="53i_0" arrivalPos="10.00" arrivalSpeed="11.71" duration="110.00" routeLength="1013.10" waitSteps="8" timeLoss="38.41" rerouteNo="0" devices="tripinfo_down_36" vType="typeNS" speedFactor="1.00" vaporized=""/>
    <tripinfo id="down_48" depart="122.00" departLane="54o_0" departPos="7.10" departSpeed="0.00" departDelay="0.00" arrival="210.00" arrivalLane="53i_0" arrivalPos="10.00" arrivalSpeed="11.10" duration="88.00" routeLength="1013.10" waitSteps="0" timeLoss="16.22" rerouteNo="0" devices="tripinfo_down_48" vType="typeNS" speedFactor="1.00" vaporized=""/>
    <tripinfo id="left_21" depart="71.00" departLane="52o_0" departPos="5.10" departSpeed="0.00" departDelay="20.00" arrival="225.00" arrivalLane="51i_0" arrivalPos="10.00" arrivalSpeed="11.78" duration="154.00" routeLength="1015.10" waitSteps="38" timeLoss="77.53" rerouteNo="0" devices="tripinfo_left_21" vType="typeWE" speedFactor="1.00" vaporized=""/>
    <tripinfo id="right_35" depart="92.00" departLane="51o_0" departPos="5.10" departSpeed="0.00" departDelay="0.00" arrival="225.00" arrivalLane="52i_0" arrivalPos="10.00" arrivalSpeed="11.65" duration="133.00" routeLength="1015.10" waitSteps="25" timeLoss="56.46" rerouteNo="0" devices="tripinfo_right_35" vType="typeWE" speedFactor="1.00" vaporized=""/>
    <tripinfo id="left_22" depart="76.00" departLane="52o_0" departPos="5.10" departSpeed="0.00" departDelay="23.00" arrival="226.00" arrivalLane="51i_0" arrivalPos="10.00" arrivalSpeed="10.90" duration="150.00" routeLength="1015.10" waitSteps="35" timeLoss="73.99" rerouteNo="0" devices="tripinfo_left_22" vType="typeWE" speedFactor="1.00" vaporized=""/>
    <tripinfo id="right_37" depart="101.00" departLane="51o_0" departPos="5.10" departSpeed="0.00" departDelay="2.00" arrival="226.00" arrivalLane="52i_0" arrivalPos="10.00" arrivalSpeed="10.73" duration="125.00" routeLength="1015.10" waitSteps="23" timeLoss="48.98" rerouteNo="0" devices="tripinfo_right_37" vType="typeWE" speedFactor="1.00" vaporized=""/>
    <tripinfo id="right_41" depart="107.00" departLane="51o_0" departPos="5.10" departSpeed="0.00" departDelay="1.00" arrival="228.00" arrivalLane="52i_0" arrivalPos="10.00" arrivalSpeed="11.23" duration="121.00" routeLength="1015.10" waitSteps="19" timeLoss="45.09" rerouteNo="0" devices="tripinfo_right_41" vType="typeWE" speedFactor="1.00" vaporized=""/>
    <tripinfo id="left_24" depart="82.00" departLane="52o_0" departPos="5.10" departSpeed="0.00" departDelay="26.00" arrival="229.00" arrivalLane="51i_0" arrivalPos="10.00" arrivalSpeed="11.42" duration="147.00" routeLength="1015.10" waitSteps="33" timeLoss="70.36" rerouteNo="0" devices="tripinfo_left_24" vType="typeWE" speedFactor="1.00" vaporized=""/>
    <tripinfo id="left_25" depart="87.00" departLane="52o_0" departPos="5.10" departSpeed="0.00" departDelay="29.00" arrival="230.00" arrivalLane="51i_0" arrivalPos="10.00" arrivalSpeed="11.06" duration="143.00" routeLength="1015.10" waitSteps="28" timeLoss="66.96" rerouteNo="0" devices="tripinfo_left_25" vType="typeWE" speedFactor="1.00" vaporized=""/>
    <tripinfo id="right_42" depart="112.00" departLane="51o_0" departPos="5.10" departSpeed="0.00" departDelay="4.00" arrival="230.00" arrivalLane="52i_0" arrivalPos="10.00" arrivalSpeed="11.64" duration="118.00" routeLength="1015.10" waitSteps="13" timeLoss="41.88" rerouteNo="0" devices="tripinfo_right_42" vType="typeWE" speedFactor="1.00" vaporized=""/>
    <tripinfo id="left_30" depart="94.00" departLane="52o_0" departPos="5.10" departSpeed="0.00" departDelay="16.00" arrival="232.00" arrivalLane="51i_0" arrivalPos="10.00" arrivalSpeed="11.51" duration="138.00" routeLength="1015.10" waitSteps="23" timeLoss="62.15" rerouteNo="0" devices="tripinfo_left_30" vType="typeWE" speedFactor="1.00" vaporized=""/>
    <tripinfo id="right_43" depart="117.00" departLane="51o_0" departPos="5.10" departSpeed="0.00" departDelay="6.00" arrival="232.00" arrivalLane="52i_0" arrivalPos="10.00" arrivalSpeed="11.50" duration="115.00" routeLength="1015.10" waitSteps="12" timeLoss="39.20" rerouteNo="0" devices="tripinfo_right_43" vType="typeWE" speedFactor="1.00" vaporized=""/>
    <tripinfo id="left_32" depart="100.00" departLane="52o_0" departPos="5.10" departSpeed="0.00" departDelay="15.00" arrival="266.00" arrivalLane="51i_0" arrivalPos="10.00" arrivalSpeed="11.41" duration="166.00" routeLength="1015.10" waitSteps="45" timeLoss="90.23" rerouteNo="0" devices="tripinfo_left_32" vType="typeWE" speedFactor="1.00" vaporized=""/>
    <tripinfo id="right_44" depart="123.00" departLane="51o_0" departPos="5.10" departSpeed="0.00" departDelay="9.00" arrival="266.00" arrivalLane="52i_0" arrivalPos="10.00" arrivalSpeed="11.29" duration="143.00" routeLength="1015.10" waitSteps="30" timeLoss="66.51" rerouteNo="0" devices="tripinfo_right_44" vType="typeWE" speedFactor="1.00" vaporized=""/>
    <tripinfo id="left_34" depart="105.00" departLane="52o_0" departPos="5.10" departSpeed="0.00" departDelay="14.00" arrival="268.00" arrivalLane="51i_0" arrivalPos="10.00" arrivalSpeed="11.49" duration="163.00" routeLength="1015.10" waitSteps="45" timeLoss="87.17" rerouteNo="0" devices="tripinfo_left_34" vType="typeWE" speedFactor="1.00" vaporized=""/>
    <tripinfo id="right_49" depart="128.00" departLane="51o_0" departPos="5.10" departSpeed="0.00" departDelay="3.00" arrival="268.00" arrivalLane="52i_0" arrivalPos="10.00" arrivalSpeed="11.30" duration="140.00" routeLength="1015.10" waitSteps="24" timeLoss="63.44" rerouteNo="0" devices="tripinfo_right_49" vType="typeWE" speedFactor="1.00" vaporized=""/>
    <tripinfo id="right_51" depart="135.00" departLane="51o_0" departPos="5.10" departSpeed="0.00" departDelay="0.00" arrival="270.00" arrivalLane="52i_0" arrivalPos="10.00" arrivalSpeed="11.50" duration="135.00" routeLength="1015.10" waitSteps="20" timeLoss="58.37" rerouteNo="0" devices="tripinfo_right_51" vType="typeWE" speedFactor="1.00" vaporized=""/>
    <tripinfo id="left_38" depart="111.00" departLane="52o_0" departPos="5.10" departSpeed="0.00" departDelay="12.00" arrival="271.00" arrivalLane="51i_0" arrivalPos="10.00" arrivalSpeed="11.25" duration="160.00" routeLength="1015.10" waitSteps="43" timeLoss="83.94" rerouteNo="0" devices="tripinfo_left_38" vType="typeWE" speedFactor="1.00" vaporized=""/>
    <tripinfo id="right_53" depart="141.00" departLane="51o_0" departPos="5.10" departSpeed="0.00" departDelay="3.00" arrival="272.00" arrivalLane="52i_0" arrivalPos="10.00" arrivalSpeed="11.28" duration="131.00" routeLength="1015.10" waitSteps="20" timeLoss="54.86" rerouteNo="0" devices="tripinfo_right_53" vType="typeWE" speedFactor="1.00" vaporized=""/>
    <tripinfo id="left_39" depart="117.00" departLane="52o_0" departPos="5.10" departSpeed="0.00" departDelay="16.00" arrival="273.00" arrivalLane="51i_0" arrivalPos="10.00" arrivalSpeed="11.51" duration="156.00" routeLength="1015.10" waitSteps="40" timeLoss="79.83" rerouteNo="0" devices="tripinfo_left_39" vType="typeWE" speedFactor="1.00" vaporized=""/>
    <tripinfo id="right_57" depart="149.00" departLane="51o_0" departPos="5.10" departSpeed="0.00" departDelay="5.00" arrival="275.00" arrivalLane="52i_0" arrivalPos="10.00" arrivalSpeed="11.77" duration="126.00" routeLength="1015.10" waitSteps="19" timeLoss="49.33" rerouteNo="0" devices="tripinfo_right_57" vType="typeWE" speedFactor="1.00" vaporized=""/>
    <tripinfo id="down_69" depart="172.00" departLane="54o_0" departPos="7.10" departSpeed="0.00" departDelay="0.00" arrival="287.00" arrivalLane="53i_0" arrivalPos="10.00" arrivalSpeed="11.62" duration="115.00" routeLength="1013.10" waitSteps="16" timeLoss="43.65" rerouteNo="0" devices="tripinfo_down_69" vType="typeNS" speedFactor="1.00" vaporized=""/>
    <tripinfo id="left_40" depart="122.00" departLane="52o_0" departPos="5.10" departSpeed="0.00" departDelay="18.00" arrival="307.00" arrivalLane="51i_0" arrivalPos="10.00" arrivalSpeed="11.43" duration="185.00" routeLength="1015.10" waitSteps="62" timeLoss="109.28" rerouteNo="0" devices="tripinfo_left_40" vType="typeWE" speedFactor="1.00" vaporized=""/>
    <tripinfo id="right_58" depart="154.00" departLane="51o_0" departPos="5.10" departSpeed="0.00" departDelay="9.00" arrival="308.00" arrivalLane="52i_0" arrivalPos="10.00" arrivalSpeed="11.55" duration="154.00" routeLength="1015.10" waitSteps="40" timeLoss="77.73" rerouteNo="0" devices="tripinfo_right_58" vType="typeWE" speedFactor="1.00" vaporized=""/>
    <tripinfo id="right_60" depart="159.00" departLane="51o_0" departPos="5.10" departSpeed="0.00" departDelay="4.00" arrival="310.00" arrivalLane="52i_0" arrivalPos="10.00" arrivalSpeed="11.50" duration="151.00" routeLength="1015.10" waitSteps="33" timeLoss="75.17" rerouteNo="0" devices="tripinfo_right_60" vType="typeWE" speedFactor="1.00" vaporized=""/>
    <tripinfo id="left_45" depart="127.00" departLane="52o_0" departPos="5.10" departSpeed="0.00" departDelay="13.00" arrival="311.00" arrivalLane="51i_0" arrivalPos="10.00" arrivalSpeed="11.52" duration="184.00" routeLength="1015.10" waitSteps="57" timeLoss="107.83" rerouteNo="0" devices="tripinfo_left_45" vType="typeWE" speedFactor="1.00" vaporized=""/>
    <tripinfo id="left_46" depart="132.00" departLane="52o_0" departPos="5.10" departSpeed="0.00" departDelay="14.00" arrival="313.00" arrivalLane="51i_0" arrivalPos="10.00" arrivalSpeed="11.27" duration="181.00" routeLength="1015.10" waitSteps="51" timeLoss="104.83" rerouteNo="0" devices="tripinfo_left_46" vType="typeWE" speedFactor="1.00" vaporized=""/>
    <tripinfo id="right_65" depart="167.00" departLane="51o_0" departPos="5.10" departSpeed="0.00" departDelay="0.00" arrival="313.00" arrivalLane="52i_0" arrivalPos="10.00" arrivalSpeed="11.34" duration="146.00" routeLength="1015.10" waitSteps="29" timeLoss="69.97" rerouteNo="0" devices="tripinfo_right_65" vType="typeWE" speedFactor="1.00" vaporized=""/>
    <tripinfo id="left_47" depart="138.00" departLane="52o_0" departPos="5.10" departSpeed="0.00" departDelay="19.00" arrival="315.00" arrivalLane="51i_0" arrivalPos="10.00" arrivalSpeed="11.55" duration="177.00" routeLength="1015.10" waitSteps="45" timeLoss="100.93" rerouteNo="0" devices="tripinfo_left_47" vType="typeWE" speedFactor="1.00" vaporized=""/>
    <tripinfo id="right_66" depart="172.00" departLane="51o_0" departPos="5.10" departSpeed="0.00" departDelay="4.00" arrival="315.00" arrivalLane="52i_0" arrivalPos="10.00" arrivalSpeed="11.63" duration="143.00" routeLength="1015.10" waitSteps="26" timeLoss="67.03" rerouteNo="0" devices="tripinfo_right_66" vType="typeWE" speedFactor="1.00" vaporized=""/>
    <tripinfo id="down_97" depart="238.00" departLane="54o_0" departPos="7.10" departSpeed="0.00" departDelay="0.00" arrival="326.00" arrivalLane="53i_0" arrivalPos="10.00" arrivalSpeed="11.53" duration="88.00" routeLength="1013.10" waitSteps="0" timeLoss="16.57" rerouteNo="0" devices="tripinfo_down_97" vType="typeNS" speedFactor="1.00" vaporized=""/>
    <tripinfo id="down_99" depart="243.00" departLane="54o_0" departPos="7.10" departSpeed="0.00" departDelay="1.00" arrival="335.00" arrivalLane="53i_0" arrivalPos="10.00" arrivalSpeed="11.49" duration="92.00" routeLength="1013.10" waitSteps="1" timeLoss="20.29" rerouteNo="0" devices="tripinfo_down_99" vType="typeNS" speedFactor="1.00" vaporized=""/>
    <tripinfo id="left_50" depart="143.00" departLane="52o_0" departPos="5.10" departSpeed="0.00" departDelay="12.00" arrival="350.00" arrivalLane="51i_0" arrivalPos="10.00" arrivalSpeed="11.42" duration="207.00" routeLength="1015.10" waitSteps="65" timeLoss="130.79" rerouteNo="0" devices="tripinfo_left_50" vType="typeWE" speedFactor="1.00" vaporized=""/>
    <tripinfo id="right_70" depart="177.00" departLane="51o_0" departPos="5.10" departSpeed="0.00" departDelay="1.00" arrival="350.00" arrivalLane="52i_0" arrivalPos="10.00" arrivalSpeed="11.72" duration="173.00" routeLength="1015.10" waitSteps="49" timeLoss="97.14" rerouteNo="0" devices="tripinfo_right_70" vType="typeWE" speedFactor="1.00" vaporized=""/>
    <tripinfo id="left_52" depart="148.00" departLane="52o_0" departPos="5.10" departSpeed="0.00" departDelay="13.00" arrival="353.00" arrivalLane="51i_0" arrivalPos="10.00" arrivalSpeed="11.32" duration="205.00" routeLength="1015.10" waitSteps="66" timeLoss="128.60" rerouteNo="0" devices="tripinfo_left_52" vType="typeWE" speedFactor="1.00" vaporized=""/>
    <tripinfo id="right_72" depart="182.00" departLane="51o_0" departPos="5.10" departSpeed="0.00" departDelay="1.00" arrival="353.00" arrivalLane="52i_0" arrivalPos="10.00" arrivalSpeed="11.62" duration="171.00" routeLength="1015.10" waitSteps="47" timeLoss="94.44" rerouteNo="0" devices="tripinfo_right_72" vType="typeWE" speedFactor="1.00" vaporized=""/>
    <tripinfo id="right_73" depart="191.00" departLane="51o_0" departPos="5.10" departSpeed="0.00" departDelay="8.00" arrival="354.00" arrivalLane="52i_0" arrivalPos="10.00" arrivalSpeed="10.86" duration="163.00" routeLength="1015.10" waitSteps="45" timeLoss="87.00" rerouteNo="0" devices="tripinfo_right_73" vType="typeWE" speedFactor="1.00" vaporized=""/>
    <tripinfo id="left_54" depart="153.00" departLane="52o_0" departPos="5.10" departSpeed="0.00" departDelay="15.00" arrival="355.00" arrivalLane="51i_0" arrivalPos="10.00" arrivalSpeed="11.48" duration="202.00" routeLength="1015.10" waitSteps="63" timeLoss="125.53" rerouteNo="0" devices="tripinfo_left_54" vType="typeWE" speedFactor="1.00" vaporized=""/>
    <tripinfo id="left_55" depart="158.00" departLane="52o_0" departPos="5.10" departSpeed="0.00" departDelay="16.00" arrival="357.00" arrivalLane="51i_0" arrivalPos="10.00" arrivalSpeed="11.50" duration="199.00" routeLength="1015.10" waitSteps="63" timeLoss="123.15" rerouteNo="0" devices="tripinfo_left_55" vType="typeWE" speedFactor="1.00" vaporized=""/>
    <tripinfo id="right_74" depart="196.00" departLane="51o_0" departPos="5.10" departSpeed="0.00" departDelay="12.00" arrival="357.00" arrivalLane="52i_0" arrivalPos="10.00" arrivalSpeed="11.40" duration="161.00" routeLength="1015.10" waitSteps="45" timeLoss="84.35" rerouteNo="0" devices="tripinfo_right_74" vType="typeWE" speedFactor="1.00" vaporized=""/>
    <tripinfo id="left_56" depart="163.00" departLane="52o_0" departPos="5.10" departSpeed="0.00" departDelay="20.00" arrival="359.00" arrivalLane="51i_0" arrivalPos="10.00" arrivalSpeed="11.51" duration="196.00" routeLength="1015.10" waitSteps="62" timeLoss="119.88" rerouteNo="0" devices="tripinfo_left_56" vType="typeWE" speedFactor="1.00" vaporized=""/>
    <tripinfo id="down_108" depart="283.00" departLane="54o_0" departPos="7.10" departSpeed="0.00" departDelay="0.00" arrival="372.00" arrivalLane="53i_0" arrivalPos="10.00" arrivalSpeed="11.64" duration="89.00" routeLength="1013.10" waitSteps="0" timeLoss="17.22" rerouteNo="0" devices="tripinfo_down_108" vType="typeNS" speedFactor="1.00" vaporized=""/>
    <tripinfo id="left_59" depart="168.00" departLane="52o_0" departPos="5.10" departSpeed="0.00" departDelay="15.00" arrival="392.00" arrivalLane="51i_0" arrivalPos="10.00" arrivalSpeed="11.58" duration="224.00" routeLength="1015.10" waitSteps="86" timeLoss="147.82" rerouteNo="0" devices="tripinfo_left_59" vType="typeWE" speedFactor="1.00" vaporized=""/>
    <tripinfo id="right_78" depart="201.00" departLane="51o_0" departPos="5.10" departSpeed="0.00" departDelay="4.00" arrival="393.00" arrivalLane="52i_0" arrivalPos="10.00" arrivalSpeed="11.56" duration="192.00" routeLength="1015.10" waitSteps="66" timeLoss="115.63" rerouteNo="0" devices="tripinfo_right_78" vType="typeWE" speedFactor="1.00" vaporized=""/>
    <tripinfo id="left_61" depart="173.00" departLane="52o_0" departPos="5.10" departSpeed="0.00" departDelay="17.00" arrival="394.00" arrivalLane="51i_0" arrivalPos="10.00" arrivalSpeed="11.50" duration="221.00" routeLength="1015.10" waitSteps="80" timeLoss="144.65" rerouteNo="0" devices="tripinfo_left_61" vType="typeWE" speedFactor="1.00" vaporized=""/>
    <tripinfo id="right_80" depart="206.00" departLane="51o_0" departPos="5.10" departSpeed="0.00" departDelay="6.00" arrival="395.00" arrivalLane="52i_0" arrivalPos="10.00" arrivalSpeed="11.40" duration="189.00" routeLength="1015.10" waitSteps="63" timeLoss="112.44" rerouteNo="0" devices="tripinfo_right_80" vType="typeWE" speedFactor="1.00" vaporized=""/>
    <tripinfo id="left_62" depart="178.00" departLane="52o_0" departPos="5.10" departSpeed="0.00" departDelay="18.00" arrival="397.00" arrivalLane="51i_0" arrivalPos="10.00" arrivalSpeed="11.70" duration="219.00" routeLength="1015.10" waitSteps="76" timeLoss="142.63" rerouteNo="0" devices="tripinfo_left_62" vType="typeWE" speedFactor="1.00" vaporized=""/>
    <tripinfo id="right_81" depart="212.00" departLane="51o_0" departPos="5.10" departSpeed="0.00" departDelay="5.00" arrival="397.00" arrivalLane="52i_0" arrivalPos="10.00" arrivalSpeed="11.46" duration="185.00" routeLength="1015.10" waitSteps="60" timeLoss="108.63" rerouteNo="0" devices="tripinfo_right_81" vType="typeWE" speedFactor="1.00" vaporized=""/>
    <tripinfo id="left_63" depart="191.00" departLane="52o_0" departPos="5.10" departSpeed="0.00" departDelay="27.00" arrival="399.00" arrivalLane="51i_0" arrivalPos="10.00" arrivalSpeed="11.67" duration="208.00" routeLength="1015.10" waitSteps="65" timeLoss="131.92" rerouteNo="0" devices="tripinfo_left_63" vType="typeWE" speedFactor="1.00" vaporized=""/>
    <tripinfo id="right_83" depart="217.00" departLane="51o_0" departPos="5.10" departSpeed="0.00" departDelay="6.00" arrival="399.00" arrivalLane="52i_0" arrivalPos="10.00" arrivalSpeed="11.52" duration="182.00" routeLength="1015.10" waitSteps="53" timeLoss="105.52" rerouteNo="0" devices="tripinfo_right_83" vType="typeWE" speedFactor="1.00" vaporized=""/>
    <tripinfo id="left_64" depart="196.00" departLane="52o_0" departPos="5.10" departSpeed="0.00" departDelay="30.00" arrival="401.00" arrivalLane="51i_0" arrivalPos="10.00" arrivalSpeed="11.65" duration="205.00" routeLength="1015.10" waitSteps="61" timeLoss="128.73" rerouteNo="0" devices="tripinfo_left_64" vType="typeWE" speedFactor="1.00" vaporized=""/>
    <tripinfo id="right_85" depart="222.00" departLane="51o_0" departPos="5.10" departSpeed="0.00" departDelay="10.00" arrival="401.00" arrivalLane="52i_0" arrivalPos="10.00" arrivalSpeed="11.79" duration="179.00" routeLength="1015.10" waitSteps="51" timeLoss="102.37" rerouteNo="0" devices="tripinfo_right_85" vType="typeWE" speedFactor="1.00" vaporized=""/>
    <tripinfo id="down_117" depart="302.00" departLane="54o_0" departPos="7.10" departSpeed="0.00" departDelay="0.00" arrival="414.00" arrivalLane="53i_0" arrivalPos="10.00" arrivalSpeed="11.66" duration="112.00" routeLength="1013.10" waitSteps="12" timeLoss="40.19" rerouteNo="0" devices="tripinfo_down_117" vType="typeNS" speedFactor="1.00" vaporized=""/>