<?xml version="1.0" encoding="UTF-8"?>

<!-- generated on Sun Mar  4 18:42:56 2018 by SUMO Version 0.32.0
<?xml version="1.0" encoding="UTF-8"?>

<configuration xmlns:xsi="http://www.w3.org/2001/XMLSchema-instance" xsi:noNamespaceSchemaLocation="http://sumo.dlr.de/xsd/sumoConfiguration.xsd">

    <input>
        <net-file value="data/cross.net.xml"/>
        <route-files value="data/cross.rou.xml"/>
        <additional-files value="data/cross.det.xml,data/cross.det2.xml"/>
    </input>

    <output>
        <tripinfo-output value="fgreen=20_tripinfo.xml"/>
    </output>

    <time>
        <begin value="0"/>
    </time>

    <report>
        <verbose value="true"/>
        <error-log value="errors"/>
        <no-step-log value="true"/>
    </report>

    <traci_server>
        <remote-port value="61331"/>
    </traci_server>

</configuration>
-->

<tripinfos xmlns:xsi="http://www.w3.org/2001/XMLSchema-instance" xsi:noNamespaceSchemaLocation="http://sumo.dlr.de/xsd/tripinfo_file.xsd">
    <tripinfo id="right_2" depart="3.00" departLane="51o_0" departPos="5.10" departSpeed="0.00" departDelay="0.00" arrival="108.00" arrivalLane="52i_0" arrivalPos="10.00" arrivalSpeed="11.77" duration="105.00" routeLength="1015.10" waitSteps="4" timeLoss="28.69" rerouteNo="0" devices="tripinfo_right_2" vType="typeWE" speedFactor="1.00" vaporized=""/>
    <tripinfo id="left_0" depart="0.00" departLane="52o_0" departPos="5.10" departSpeed="0.00" departDelay="0.00" arrival="109.00" arrivalLane="51i_0" arrivalPos="10.00" arrivalSpeed="11.33" duration="109.00" routeLength="1015.10" waitSteps="6" timeLoss="32.43" rerouteNo="0" devices="tripinfo_left_0" vType="typeWE" speedFactor="1.00" vaporized=""/>
    <tripinfo id="left_1" depart="5.00" departLane="52o_0" departPos="5.10" departSpeed="0.00" departDelay="3.00" arrival="110.00" arrivalLane="51i_0" arrivalPos="10.00" arrivalSpeed="11.49" duration="105.00" routeLength="1015.10" waitSteps="2" timeLoss="29.15" rerouteNo="0" devices="tripinfo_left_1" vType="typeWE" speedFactor="1.00" vaporized=""/>
    <tripinfo id="right_3" depart="8.00" departLane="51o_0" departPos="5.10" departSpeed="0.00" departDelay="4.00" arrival="111.00" arrivalLane="52i_0" arrivalPos="10.00" arrivalSpeed="11.78" duration="103.00" routeLength="1015.10" waitSteps="0" timeLoss="26.97" rerouteNo="0" devices="tripinfo_right_3" vType="typeWE" speedFactor="1.00" vaporized=""/>
    <tripinfo id="left_4" depart="10.00" departLane="52o_0" departPos="5.10" departSpeed="0.00" departDelay="6.00" arrival="112.00" arrivalLane="51i_0" arrivalPos="10.00" arrivalSpeed="11.56" duration="102.00" routeLength="1015.10" waitSteps="0" timeLoss="25.96" rerouteNo="0" devices="tripinfo_left_4" vType="typeWE" speedFactor="1.00" vaporized=""/>
    <tripinfo id="left_5" depart="15.00" departLane="52o_0" departPos="5.10" departSpeed="0.00" departDelay="9.00" arrival="114.00" arrivalLane="51i_0" arrivalPos="10.00" arrivalSpeed="11.59" duration="99.00" routeLength="1015.10" waitSteps="0" timeLoss="22.71" rerouteNo="0" devices="tripinfo_left_5" vType="typeWE" speedFactor="1.00" vaporized=""/>
    <tripinfo id="right_6" depart="13.00" departLane="51o_0" departPos="5.10" departSpeed="0.00" departDelay="4.00" arrival="114.00" arrivalLane="52i_0" arrivalPos="10.00" arrivalSpeed="11.80" duration="101.00" routeLength="1015.10" waitSteps="0" timeLoss="24.48" rerouteNo="0" devices="tripinfo_right_6" vType="typeWE" speedFactor="1.00" vaporized=""/>
    <tripinfo id="left_8" depart="20.00" departLane="52o_0" departPos="5.10" departSpeed="0.00" departDelay="5.00" arrival="116.00" arrivalLane="51i_0" arrivalPos="10.00" arrivalSpeed="11.48" duration="96.00" routeLength="1015.10" waitSteps="0" timeLoss="19.62" rerouteNo="0" devices="tripinfo_left_8" vType="typeWE" speedFactor="1.00" vaporized=""/>
    <tripinfo id="left_9" depart="25.00" departLane="52o_0" departPos="5.10" departSpeed="0.00" departDelay="6.00" arrival="118.00" arrivalLane="51i_0" arrivalPos="10.00" arrivalSpeed="11.38" duration="93.00" routeLength="1015.10" waitSteps="0" timeLoss="16.65" rerouteNo="0" devices="tripinfo_left_9" vType="typeWE" speedFactor="1.00" vaporized=""/>
    <tripinfo id="left_10" depart="30.00" departLane="52o_0" departPos="5.10" departSpeed="0.00" departDelay="8.00" arrival="122.00" arrivalLane="51i_0" arrivalPos="10.00" arrivalSpeed="11.42" duration="92.00" routeLength="1015.10" waitSteps="0" timeLoss="16.00" rerouteNo="0" devices="tripinfo_left_10" vType="typeWE" speedFactor="1.00" vaporized=""/>
    <tripinfo id="down_7" depart="13.00" departLane="54o_0" departPos="7.10" departSpeed="0.00" departDelay="0.00" arrival="134.00" arrivalLane="53i_0" arrivalPos="10.00" arrivalSpeed="10.72" duration="121.00" routeLength="1013.10" waitSteps="22" timeLoss="49.55" rerouteNo="0" devices="tripinfo_down_7" vType="typeNS" speedFactor="1.00" vaporized=""/>
    <tripinfo id="down_12" depart="29.00" departLane="54o_0" departPos="7.10" departSpeed="0.00" departDelay="0.00" arrival="137.00" arrivalLane="53i_0" arrivalPos="10.00" arrivalSpeed="11.59" duration="108.00" routeLength="1013.10" waitSteps="6" timeLoss="36.63" rerouteNo="0" devices="tripinfo_down_12" vType="typeNS" speedFactor="1.00" vaporized=""/>
    <tripinfo id="left_11" depart="35.00" departLane="52o_0" departPos="5.10" departSpeed="0.00" departDelay="6.00" arrival="160.00" arrivalLane="51i_0" arrivalPos="10.00" arrivalSpeed="11.53" duration="125.00" routeLength="1015.10" waitSteps="23" timeLoss="49.21" rerouteNo="0" devices="tripinfo_left_11" vType="typeWE" speedFactor="1.00" vaporized=""/>
    <tripinfo id="right_13" depart="30.00" departLane="51o_0" departPos="5.10" departSpeed="0.00" departDelay="0.00" arrival="160.00" arrivalLane="52i_0" arrivalPos="10.00" arrivalSpeed="11.57" duration="130.00" routeLength="1015.10" waitSteps="28" timeLoss="54.20" rerouteNo="0" devices="tripinfo_right_13" vType="typeWE" speedFactor="1.00" vaporized=""/>
    <tripinfo id="left_14" depart="40.00" departLane="52o_0" departPos="5.10" departSpeed="0.00" departDelay="9.00" arrival="162.00" arrivalLane="51i_0" arrivalPos="10.00" arrivalSpeed="11.35" duration="122.00" routeLength="1015.10" waitSteps="18" timeLoss="46.02" rerouteNo="0" devices="tripinfo_left_14" vType="typeWE" speedFactor="1.00" vaporized=""/>
    <tripinfo id="right_18" depart="42.00" departLane="51o_0" departPos="5.10" departSpeed="0.00" departDelay="0.00" arrival="163.00" arrivalLane="52i_0" arrivalPos="10.00" arrivalSpeed="11.51" duration="121.00" routeLength="1015.10" waitSteps="18" timeLoss="44.95" rerouteNo="0" devices="tripinfo_right_18" vType="typeWE" speedFactor="1.00" vaporized=""/>
    <tripinfo id="left_15" depart="46.00" departLane="52o_0" departPos="5.10" departSpeed="0.00" departDelay="13.00" arrival="164.00" arrivalLane="51i_0" arrivalPos="10.00" arrivalSpeed="11.43" duration="118.00" routeLength="1015.10" waitSteps="16" timeLoss="42.10" rerouteNo="0" devices="tripinfo_left_15" vType="typeWE" speedFactor="1.00" vaporized=""/>
    <tripinfo id="right_23" depart="55.00" departLane="51o_0" departPos="5.10" departSpeed="0.00" departDelay="0.00" arrival="165.00" arrivalLane="52i_0" arrivalPos="10.00" arrivalSpeed="11.36" duration="110.00" routeLength="1015.10" waitSteps="7" timeLoss="33.81" rerouteNo="0" devices="tripinfo_right_23" vType="typeWE" speedFactor="1.00" vaporized=""/>
    <tripinfo id="left_16" depart="51.00" departLane="52o_0" departPos="5.10" departSpeed="0.00" departDelay="16.00" arrival="167.00" arrivalLane="51i_0" arrivalPos="10.00" arrivalSpeed="11.60" duration="116.00" routeLength="1015.10" waitSteps="10" timeLoss="39.57" rerouteNo="0" devices="tripinfo_left_16" vType="typeWE" speedFactor="1.00" vaporized=""/>
    <tripinfo id="right_26" depart="61.00" departLane="51o_0" departPos="5.10" departSpeed="0.00" departDelay="0.00" arrival="167.00" arrivalLane="52i_0" arrivalPos="10.00" arrivalSpeed="11.74" duration="106.00" routeLength="1015.10" waitSteps="2" timeLoss="29.84" rerouteNo="0" devices="tripinfo_right_26" vType="typeWE" speedFactor="1.00" vaporized=""/>
    <tripinfo id="left_17" depart="56.00" departLane="52o_0" departPos="5.10" departSpeed="0.00" departDelay="15.00" arrival="169.00" arrivalLane="51i_0" arrivalPos="10.00" arrivalSpeed="11.42" duration="113.00" routeLength="1015.10" waitSteps="9" timeLoss="36.70" rerouteNo="0" devices="tripinfo_left_17" vType="typeWE" speedFactor="1.00" vaporized=""/>
    <tripinfo id="right_27" depart="69.00" departLane="51o_0" departPos="5.10" departSpeed="0.00" departDelay="0.00" arrival="169.00" arrivalLane="52i_0" arrivalPos="10.00" arrivalSpeed="11.74" duration="100.00" routeLength="1015.10" waitSteps="0" timeLoss="23.90" rerouteNo="0" devices="tripinfo_right_27" vType="typeWE" speedFactor="1.00" vaporized=""/>
    <tripinfo id="left_19" depart="62.00" departLane="52o_0" departPos="5.10" departSpeed="0.00" departDelay="17.00" arrival="171.00" arrivalLane="51i_0" arrivalPos="10.00" arrivalSpeed="11.22" duration="109.00" routeLength="1015.10" waitSteps="4" timeLoss="32.74" rerouteNo="0" devices="tripinfo_left_19" vType="typeWE" speedFactor="1.00" vaporized=""/>
    <tripinfo id="right_28" depart="76.00" departLane="51o_0" departPos="5.10" departSpeed="0.00" departDelay="0.00" arrival="171.00" arrivalLane="52i_0" arrivalPos="10.00" arrivalSpeed="11.40" duration="95.00" routeLength="1015.10" waitSteps="0" timeLoss="18.93" rerouteNo="0" devices="tripinfo_right_28" vType="typeWE" speedFactor="1.00" vaporized=""/>
    <tripinfo id="left_20" depart="67.00" departLane="52o_0" departPos="5.10" departSpeed="0.00" departDelay="21.00" arrival="173.00" arrivalLane="51i_0" arrivalPos="10.00" arrivalSpeed="11.48" duration="106.00" routeLength="1015.10" waitSteps="0" timeLoss="29.51" rerouteNo="0" devices="tripinfo_left_20" vType="typeWE" speedFactor="1.00" vaporized=""/>
    <tripinfo id="right_29" depart="81.00" departLane="51o_0" departPos="5.10" departSpeed="0.00" departDelay="4.00" arrival="173.00" arrivalLane="52i_0" arrivalPos="10.00" arrivalSpeed="11.48" duration="92.00" routeLength="1015.10" waitSteps="0" timeLoss="15.63" rerouteNo="0" devices="tripinfo_right_29" vType="typeWE" speedFactor="1.00" vaporized=""/>
    <tripinfo id="down_33" depart="89.00" departLane="54o_0" departPos="7.10" departSpeed="0.00" departDelay="0.00" arrival="179.00" arrivalLane="53i_0" arrivalPos="10.00" arrivalSpeed="11.34" duration="90.00" routeLength="1013.10" waitSteps="0" timeLoss="18.09" rerouteNo="0" devices="tripinfo_down_33" vType="typeNS" speedFactor="1.00" vaporized=""/>
    <tripinfo id="down_36" depart="96.00" departLane="54o_0" departPos="7.10" departSpeed="0.00" departDelay="0.00" arrival="184.00" arrivalLane="53i_0" arrivalPos="10.00" arrivalSpeed="11.48" duration="88.00" routeLength="1013.10" waitSteps="0" timeLoss="16.59" rerouteNo="0" devices="tripinfo_down_36" vType="typeNS" speedFactor="1.00" vaporized=""/>
    <tripinfo id="right_31" depart="86.00" departLane="51o_0" departPos="5.10" departSpeed="0.00" departDelay="2.00" arrival="212.00" arrivalLane="52i_0" arrivalPos="10.00" arrivalSpeed="11.06" duration="126.00" routeLength="1015.10" waitSteps="24" timeLoss="50.03" rerouteNo="0" devices="tripinfo_right_31" vType="typeWE" speedFactor="1.00" vaporized=""/>
    <tripinfo id="left_21" depart="72.00" departLane="52o_0" departPos="5.10" departSpeed="0.00" departDelay="21.00" arrival="213.00" arrivalLane="51i_0" arrivalPos="10.00" arrivalSpeed="11.37" duration="141.00" routeLength="1015.10" waitSteps="29" timeLoss="64.40" rerouteNo="0" devices="tripinfo_left_21" vType="typeWE" speedFactor="1.00" vaporized=""/>
    <tripinfo id="right_35" depart="92.00" departLane="51o_0" departPos="5.10" departSpeed="0.00" departDelay="0.00" arrival="214.00" arrivalLane="52i_0" arrivalPos="10.00" arrivalSpeed="11.69" duration="122.00" routeLength="1015.10" waitSteps="20" timeLoss="46.02" rerouteNo="0" devices="tripinfo_right_35" vType="typeWE" speedFactor="1.00" vaporized=""/>
    <tripinfo id="left_22" depart="77.00" departLane="52o_0" departPos="5.10" departSpeed="0.00" departDelay="24.00" arrival="215.00" arrivalLane="51i_0" arrivalPos="10.00" arrivalSpeed="11.66" duration="138.00" routeLength="1015.10" waitSteps="27" timeLoss="61.52" rerouteNo="0" devices="tripinfo_left_22" vType="typeWE" speedFactor="1.00" vaporized=""/>
    <tripinfo id="left_24" depart="82.00" departLane="52o_0" departPos="5.10" departSpeed="0.00" departDelay="26.00" arrival="217.00" arrivalLane="51i_0" arrivalPos="10.00" arrivalSpeed="11.58" duration="135.00" routeLength="1015.10" waitSteps="27" timeLoss="58.36" rerouteNo="0" devices="tripinfo_left_24" vType="typeWE" speedFactor="1.00" vaporized=""/>
    <tripinfo id="right_37" depart="99.00" departLane="51o_0" departPos="5.10" departSpeed="0.00" departDelay="0.00" arrival="217.00" arrivalLane="52i_0" arrivalPos="10.00" arrivalSpeed="11.72" duration="118.00" routeLength="1015.10" waitSteps="13" timeLoss="41.49" rerouteNo="0" devices="tripinfo_right_37" vType="typeWE" speedFactor="1.00" vaporized=""/>
    <tripinfo id="left_25" depart="87.00" departLane="52o_0" departPos="5.10" departSpeed="0.00" departDelay="29.00" arrival="218.00" arrivalLane="51i_0" arrivalPos="10.00" arrivalSpeed="11.44" duration="131.00" routeLength="1015.10" waitSteps="27" timeLoss="55.12" rerouteNo="0" devices="tripinfo_left_25" vType="typeWE" speedFactor="1.00" vaporized=""/>
    <tripinfo id="right_41" depart="106.00" departLane="51o_0" departPos="5.10" departSpeed="0.00" departDelay="0.00" arrival="219.00" arrivalLane="52i_0" arrivalPos="10.00" arrivalSpeed="11.75" duration="113.00" routeLength="1015.10" waitSteps="8" timeLoss="36.46" rerouteNo="0" devices="tripinfo_right_41" vType="typeWE" speedFactor="1.00" vaporized=""/>
    <tripinfo id="left_30" depart="92.00" departLane="52o_0" departPos="5.10" departSpeed="0.00" departDelay="14.00" arrival="220.00" arrivalLane="51i_0" arrivalPos="10.00" arrivalSpeed="11.53" duration="128.00" routeLength="1015.10" waitSteps="24" timeLoss="51.96" rerouteNo="0" devices="tripinfo_left_30" vType="typeWE" speedFactor="1.00" vaporized=""/>
    <tripinfo id="right_42" depart="118.00" departLane="51o_0" departPos="5.10" departSpeed="0.00" departDelay="10.00" arrival="221.00" arrivalLane="52i_0" arrivalPos="10.00" arrivalSpeed="11.32" duration="103.00" routeLength="1015.10" waitSteps="0" timeLoss="26.39" rerouteNo="0" devices="tripinfo_right_42" vType="typeWE" speedFactor="1.00" vaporized=""/>
    <tripinfo id="left_32" depart="97.00" departLane="52o_0" departPos="5.10" departSpeed="0.00" departDelay="12.00" arrival="223.00" arrivalLane="51i_0" arrivalPos="10.00" arrivalSpeed="11.51" duration="126.00" routeLength="1015.10" waitSteps="22" timeLoss="49.33" rerouteNo="0" devices="tripinfo_left_32" vType="typeWE" speedFactor="1.00" vaporized=""/>
    <tripinfo id="right_43" depart="123.00" departLane="51o_0" departPos="5.10" departSpeed="0.00" departDelay="12.00" arrival="223.00" arrivalLane="52i_0" arrivalPos="10.00" arrivalSpeed="11.41" duration="100.00" routeLength="1015.10" waitSteps="0" timeLoss="23.79" rerouteNo="0" devices="tripinfo_right_43" vType="typeWE" speedFactor="1.00" vaporized=""/>
    <tripinfo id="left_34" depart="102.00" departLane="52o_0" departPos="5.10" departSpeed="0.00" departDelay="11.00" arrival="225.00" arrivalLane="51i_0" arrivalPos="10.00" arrivalSpeed="11.39" duration="123.00" routeLength="1015.10" waitSteps="18" timeLoss="46.51" rerouteNo="0" devices="tripinfo_left_34" vType="typeWE" speedFactor="1.00" vaporized=""/>
    <tripinfo id="right_44" depart="128.00" departLane="51o_0" departPos="5.10" departSpeed="0.00" departDelay="14.00" arrival="225.00" arrivalLane="52i_0" arrivalPos="10.00" arrivalSpeed="11.47" duration="97.00" routeLength="1015.10" waitSteps="0" timeLoss="20.53" rerouteNo="0" devices="tripinfo_right_44" vType="typeWE" speedFactor="1.00" vaporized=""/>
    <tripinfo id="down_48" depart="122.00" departLane="54o_0" departPos="7.10" departSpeed="0.00" departDelay="0.00" arrival="238.00" arrivalLane="53i_0" arrivalPos="10.00" arrivalSpeed="11.37" duration="116.00" routeLength="1013.10" waitSteps="16" timeLoss="44.12" rerouteNo="0" devices="tripinfo_down_48" vType="typeNS" speedFactor="1.00" vaporized=""/>
    <tripinfo id="left_38" depart="108.00" departLane="52o_0" departPos="5.10" departSpeed="0.00" departDelay="9.00" arrival="264.00" arrivalLane="51i_0" arrivalPos="10.00" arrivalSpeed="11.15" duration="156.00" routeLength="1015.10" waitSteps="40" timeLoss="79.70" rerouteNo="0" devices="tripinfo_left_38" vType="typeWE" speedFactor="1.00" vaporized=""/>
    <tripinfo id="right_49" depart="133.00" departLane="51o_0" departPos="5.10" departSpeed="0.00" departDelay="8.00" arrival="264.00" arrivalLane="52i_0" arrivalPos="10.00" arrivalSpeed="11.56" duration="131.00" routeLength="1015.10" waitSteps="29" timeLoss="54.80" rerouteNo="0" devices="tripinfo_right_49" vType="typeWE" speedFactor="1.00" vaporized=""/>
    <tripinfo id="left_39" depart="114.00" departLane="52o_0" departPos="5.10" departSpeed="0.00" departDelay="13.00" arrival="266.00" arrivalLane="51i_0" arrivalPos="10.00" arrivalSpeed="11.43" duration="152.00" routeLength="1015.10" waitSteps="37" timeLoss="76.24" rerouteNo="0" devices="tripinfo_left_39" vType="typeWE" speedFactor="1.00" vaporized=""/>
    <tripinfo id="right_51" depart="138.00" departLane="51o_0" departPos="5.10" departSpeed="0.00" departDelay="3.00" arrival="267.00" arrivalLane="52i_0" arrivalPos="10.00" arrivalSpeed="11.68" duration="129.00" routeLength="1015.10" waitSteps="24" timeLoss="52.46" rerouteNo="0" devices="tripinfo_right_51" vType="typeWE" speedFactor="1.00" vaporized=""/>
    <tripinfo id="left_40" depart="119.00" departLane="52o_0" departPos="5.10" departSpeed="0.00" departDelay="15.00" arrival="269.00" arrivalLane="51i_0" arrivalPos="10.00" arrivalSpeed="11.53" duration="150.00" routeLength="1015.10" waitSteps="34" timeLoss="73.45" rerouteNo="0" devices="tripinfo_left_40" vType="typeWE" speedFactor="1.00" vaporized=""/>
    <tripinfo id="right_53" depart="143.00" departLane="51o_0" departPos="5.10" departSpeed="0.00" departDelay="5.00" arrival="269.00" arrivalLane="52i_0" arrivalPos="10.00" arrivalSpeed="11.49" duration="126.00" routeLength="1015.10" waitSteps="22" timeLoss="49.63" rerouteNo="0" devices="tripinfo_right_53" vType="typeWE" speedFactor="1.00" vaporized=""/>
    <tripinfo id="left_45" depart="124.00" departLane="52o_0" departPos="5.10" departSpeed="0.00" departDelay="10.00" arrival="271.00" arrivalLane="51i_0" arrivalPos="10.00" arrivalSpeed="11.57" duration="147.00" routeLength="1015.10" waitSteps="29" timeLoss="70.66" rerouteNo="0" devices="tripinfo_left_45" vType="typeWE" speedFactor="1.00" vaporized=""/>
    <tripinfo id="right_57" depart="148.00" departLane="51o_0" departPos="5.10" departSpeed="0.00" departDelay="4.00" arrival="271.00" arrivalLane="52i_0" arrivalPos="10.00" arrivalSpeed="11.89" duration="123.00" routeLength="1015.10" waitSteps="18" timeLoss="46.34" rerouteNo="0" devices="tripinfo_right_57" vType="typeWE" speedFactor="1.00" vaporized=""/>
    <tripinfo id="left_46" depart="129.00" departLane="52o_0" departPos="5.10" departSpeed="0.00" departDelay="11.00" arrival="273.00" arrivalLane="51i_0" arrivalPos="10.00" arrivalSpeed="11.68" duration="144.00" routeLength="1015.10" waitSteps="25" timeLoss="68.00" rerouteNo="0" devices="tripinfo_left_46" vType="typeWE" speedFactor="1.00" vaporized=""/>
    <tripinfo id="right_58" depart="153.00" departLane="51o_0" departPos="5.10" departSpeed="0.00" departDelay="8.00" arrival="273.00" arrivalLane="52i_0" arrivalPos="10.00" arrivalSpeed="11.50" duration="120.00" routeLength="1015.10" waitSteps="16" timeLoss="43.86" rerouteNo="0" devices="tripinfo_right_58" vType="typeWE" speedFactor="1.00" vaporized=""/>
    <tripinfo id="left_47" depart="134.00" departLane="52o_0" departPos="5.10" departSpeed="0.00" departDelay="15.00" arrival="275.00" arrivalLane="51i_0" arrivalPos="10.00" arrivalSpeed="11.26" duration="141.00" routeLength="1015.10" waitSteps="26" timeLoss="65.00" rerouteNo="0" devices="tripinfo_left_47" vType="typeWE" speedFactor="1.00" vaporized=""/>
    <tripinfo id="right_60" depart="158.00" departLane="51o_0" departPos="5.10" departSpeed="0.00" departDelay="3.00" arrival="275.00" arrivalLane="52i_0" arrivalPos="10.00" arrivalSpeed="11.73" duration="117.00" routeLength="1015.10" waitSteps="13" timeLoss="40.60" rerouteNo="0" devices="tripinfo_right_60" vType="typeWE" speedFactor="1.00" vaporized=""/>
    <tripinfo id="left_50" depart="139.00" departLane="52o_0" departPos="5.10" departSpeed="0.00" departDelay="8.00" arrival="277.00" arrivalLane="51i_0" arrivalPos="10.00" arrivalSpeed="11.82" duration="138.00" routeLength="1015.10" waitSteps="24" timeLoss="61.70" rerouteNo="0" devices="tripinfo_left_50" vType="typeWE" speedFactor="1.00" vaporized=""/>
    <tripinfo id="right_65" depart="173.00" departLane="51o_0" departPos="5.10" departSpeed="0.00" departDelay="6.00" arrival="277.00" arrivalLane="52i_0" arrivalPos="10.00" arrivalSpeed="11.48" duration="104.00" routeLength="1015.10" waitSteps="0" timeLoss="27.48" rerouteNo="0" devices="tripinfo_right_65" vType="typeWE" speedFactor="1.00" vaporized=""/>
    <tripinfo id="down_69" depart="172.00" departLane="54o_0" departPos="7.10" departSpeed="0.00" departDelay="0.00" arrival="291.00" arrivalLane="53i_0" arrivalPos="10.00" arrivalSpeed="11.59" duration="119.00" routeLength="1013.10" waitSteps="17" timeLoss="47.41" rerouteNo="0" devices="tripinfo_down_69" vType="typeNS" speedFactor="1.00" vaporized=""/>
    <tripinfo id="left_52" depart="144.00" departLane="52o_0" departPos="5.10" departSpeed="0.00" departDelay="9.00" arrival="317.00" arrivalLane="51i_0" arrivalPos="10.00" arrivalSpeed="11.53" duration="173.00" routeLength="1015.10" waitSteps="53" timeLoss="96.81" rerouteNo="0" devices="tripinfo_left_52" vType="typeWE" speedFactor="1.00" vaporized=""/>
    <tripinfo id="right_66" depart="178.00" departLane="51o_0" departPos="5.10" departSpeed="0.00" departDelay="10.00" arrival="317.00" arrivalLane="52i_0" arrivalPos="10.00" arrivalSpeed="11.22" duration="139.00" routeLength="1015.10" waitSteps="28" timeLoss="62.81" rerouteNo="0" devices="tripinfo_right_66" vType="typeWE" speedFactor="1.00" vaporized=""/>
    <tripinfo id="left_54" depart="150.00" departLane="52o_0" departPos="5.10" departSpeed="0.00" departDelay="12.00" arrival="319.00" arrivalLane="51i_0" arrivalPos="10.00" arrivalSpeed="11.72" duration="169.00" routeLength="1015.10" waitSteps="51" timeLoss="92.62" rerouteNo="0" devices="tripinfo_left_54" vType="typeWE" speedFactor="1.00" vaporized=""/>
    <tripinfo id="right_70" depart="183.00" departLane="51o_0" departPos="5.10" departSpeed="0.00" departDelay="7.00" arrival="319.00" arrivalLane="52i_0" arrivalPos="10.00" arrivalSpeed="11.32" duration="136.00" routeLength="1015.10" waitSteps="28" timeLoss="59.72" rerouteNo="0" devices="tripinfo_right_70" vType="typeWE" speedFactor="1.00" vaporized=""/>
    <tripinfo id="left_55" depart="155.00" departLane="52o_0" departPos="5.10" departSpeed="0.00" departDelay="13.00" arrival="321.00" arrivalLane="51i_0" arrivalPos="10.00" arrivalSpeed="11.21" duration="166.00" routeLength="1015.10" waitSteps="49" timeLoss="89.36" rerouteNo="0" devices="tripinfo_left_55" vType="typeWE" speedFactor="1.00" vaporized=""/>
    <tripinfo id="right_72" depart="188.00" departLane="51o_0" departPos="5.10" departSpeed="0.00" departDelay="7.00" arrival="321.00" arrivalLane="52i_0" arrivalPos="10.00" arrivalSpeed="11.67" duration="133.00" routeLength="1015.10" waitSteps="28" timeLoss="56.60" rerouteNo="0" devices="tripinfo_right_72" vType="typeWE" speedFactor="1.00" vaporized=""/>
    <tripinfo id="left_56" depart="160.00" departLane="52o_0" departPos="5.10" departSpeed="0.00" departDelay="17.00" arrival="323.00" arrivalLane="51i_0" arrivalPos="10.00" arrivalSpeed="11.46" duration="163.00" routeLength="1015.10" waitSteps="44" timeLoss="86.42" rerouteNo="0" devices="tripinfo_left_56" vType="typeWE" speedFactor="1.00" vaporized=""/>
    <tripinfo id="right_73" depart="193.00" departLane="51o_0" departPos="5.10" departSpeed="0.00" departDelay="10.00" arrival="323.00" arrivalLane="52i_0" arrivalPos="10.00" arrivalSpeed="11.71" duration="130.00" routeLength="1015.10" waitSteps="26" timeLoss="53.59" rerouteNo="0" devices="tripinfo_right_73" vType="typeWE" speedFactor="1.00" vaporized=""/>
    <tripinfo id="left_59" depart="167.00" departLane="52o_0" departPos="5.10" departSpeed="0.00" departDelay="14.00" arrival="325.00" arrivalLane="51i_0" arrivalPos="10.00" arrivalSpeed="11.45" duration="158.00" routeLength="1015.10" waitSteps="39" timeLoss="81.49" rerouteNo="0" devices="tripinfo_left_59" vType="typeWE" speedFactor="1.00" vaporized=""/>
    <tripinfo id="right_74" depart="198.00" departLane="51o_0" departPos="5.10" departSpeed="0.00" departDelay="14.00" arrival="325.00" arrivalLane="52i_0" arrivalPos="10.00" arrivalSpeed="11.38" duration="127.00" routeLength="1015.10" waitSteps="21" timeLoss="50.83" rerouteNo="0" devices="tripinfo_right_74" vType="typeWE" speedFactor="1.00" vaporized=""/>
    <tripinfo id="left_61" depart="173.00" departLane="52o_0" departPos="5.10" departSpeed="0.00" departDelay="17.00" arrival="327.00" arrivalLane="51i_0" arrivalPos="10.00" arrivalSpeed="11.55" duration="154.00" routeLength="1015.10" waitSteps="35" timeLoss="77.43" rerouteNo="0" devices="tripinfo_left_61" vType="typeWE" speedFactor="1.00" vaporized=""/>
    <tripinfo id="right_78" depart="203.00" departLane="51o_0" departPos="5.10" departSpeed="0.00" departDelay="6.00" arrival="327.00" arrivalLane="52i_0" arrivalPos="10.00" arrivalSpeed="11.68" duration="124.00" routeLength="1015.10" waitSteps="19" timeLoss="47.55" rerouteNo="0" devices="tripinfo_right_78" vType="typeWE" speedFactor="1.00" vaporized=""/>
    <tripinfo id="left_62" depart="178.00" departLane="52o_0" departPos="5.10" departSpeed="0.00" departDelay="18.00" arrival="329.00" arrivalLane="51i_0" arrivalPos="10.00" arrivalSpeed="11.45" duration="151.00" routeLength="1015.10" waitSteps="30" timeLoss="74.61" rerouteNo="0" devices="tripinfo_left_62" vType="typeWE" speedFactor="1.00" vaporized=""/>
    <tripinfo id="right_80" depart="208.00" departLane="51o_0" departPos="5.10" departSpeed="0.00" departDelay="8.00" arrival="329.00" arrivalLane="52i_0" arrivalPos="10.00" arrivalSpeed="11.60" duration="121.00" routeLength="1015.10" waitSteps="15" timeLoss="44.68" rerouteNo="0" devices="tripinfo_right_80" vType="typeWE" speedFactor="1.00" vaporized=""/>
    <tripinfo id="down_97" depart="238.00" departLane="54o_0" departPos="7.10" departSpeed="0.00" departDelay="0.00" arrival="342.00" arrivalLane="53i_0" arrivalPos="10.00" arrivalSpeed="11.45" duration="104.00" routeLength="1013.10" waitSteps="4" timeLoss="32.84" rerouteNo="0" devices="tripinfo_down_97" vType="typeNS" speedFactor="1.00" vaporized=""/>
    <tripinfo id="down_99" depart="244.00" departLane="54o_0" departPos="7.10" departSpeed="0.00" departDelay="2.00" arrival="345.00" arrivalLane="53i_0" arrivalPos="10.00" arrivalSpeed="11.57" duration="101.00" routeLength="1013.10" waitSteps="0" timeLoss="29.28" rerouteNo="0" devices="tripinfo_down_99" vType="typeNS" speedFactor="1.00" vaporized=""/>
    <tripinfo id="left_63" depart="183.00" departLane="52o_0" departPos="5.10" departSpeed="0.00" departDelay="19.00" arrival="368.00" arrivalLane="51i_0" arrivalPos="10.00" arrivalSpeed="11.65" duration="185.00" routeLength="1015.10" waitSteps="55" timeLoss="109.23" rerouteNo="0" devices="tripinfo_left_63" vType="typeWE" speedFactor="1.00" vaporized=""/>
    <tripinfo id="right_81" depart="218.00" departLane="51o_0" departPos="5.10" departSpeed="0.00" departDelay="11.00" arrival="369.00" arrivalLane="52i_0" arrivalPos="10.00" arrivalSpeed="11.43" duration="151.00" routeLength="1015.10" waitSteps="37" timeLoss="74.83" rerouteNo="0" devices="tripinfo_right_81" vType="typeWE" speedFactor="1.00" vaporized=""/>
    <tripinfo id="left_64" depart="188.00" departLane="52o_0" departPos="5.10" departSpeed="0.00" departDelay="22.00" arrival="371.00" arrivalLane="51i_0" arrivalPos="10.00" arrivalSpeed="11.66" duration="183.00" routeLength="1015.10" waitSteps="53" timeLoss="106.37" rerouteNo="0" devices="tripinfo_left_64" vType="typeWE" speedFactor="1.00" vaporized=""/>
    <tripinfo id="right_83" depart="225.00" departLane="51o_0" departPos="5.10" departSpeed="0.00" departDelay="14.00" arrival="371.00" arrivalLane="52i_0" arrivalPos="10.00" arrivalSpeed="11.29" duration="146.00" routeLength="1015.10" waitSteps="29" timeLoss="69.85" rerouteNo="0" devices="tripinfo_right_83" vType="typeWE" speedFactor="1.00" vaporized=""/>
    <tripinfo id="left_67" depart="193.00" departLane="52o_0" departPos="5.10" departSpeed="0.00" departDelay="24.00" arrival="373.00" arrivalLane="51i_0" arrivalPos="10.00" arrivalSpeed="11.68" duration="180.00" routeLength="1015.10" waitSteps="51" timeLoss="103.48" rerouteNo="0" devices="tripinfo_left_67" vType="typeWE" speedFactor="1.00" vaporized=""/>
    <tripinfo id="right_85" depart="230.00" departLane="51o_0" departPos="5.10" departSpeed="0.00" departDelay="18.00" arrival="373.00" arrivalLane="52i_0" arrivalPos="10.00" arrivalSpeed="11.38" duration="143.00" routeLength="1015.10" waitSteps="27" timeLoss="66.65" rerouteNo="0" devices="tripinfo_right_85" vType="typeWE" speedFactor="1.00" vaporized=""/>
    <tripinfo id="left_68" depart="198.00" departLane="52o_0" departPos="5.10" departSpeed="0.00" departDelay="26.00" arrival="375.00" arrivalLane="51i_0" arrivalPos="10.00" arrivalSpeed="11.57" duration="177.00" routeLength="1015.10" waitSteps="50" timeLoss="100.52" rerouteNo="0" devices="tripinfo_left_68" vType="typeWE" speedFactor="1.00" vaporized=""/>