<?xml version="1.0" encoding="UTF-8"?>

<!-- generated on Sun Mar  4 18:48:09 2018 by SUMO Version 0.32.0
<?xml version="1.0" encoding="UTF-8"?>

<configuration xmlns:xsi="http://www.w3.org/2001/XMLSchema-instance" xsi:noNamespaceSchemaLocation="http://sumo.dlr.de/xsd/sumoConfiguration.xsd">

    <input>
        <net-file value="data/cross.net.xml"/>
        <route-files value="data/cross.rou.xml"/>
        <additional-files value="data/cross.det.xml,data/cross.det2.xml"/>
    </input>

    <output>
        <tripinfo-output value="fgreen=45_tripinfo.xml"/>
    </output>

    <time>
        <begin value="0"/>
    </time>

    <report>
        <verbose value="true"/>
        <error-log value="errors"/>
        <no-step-log value="true"/>
    </report>

    <traci_server>
        <remote-port value="61363"/>
    </traci_server>

</configuration>
-->

<tripinfos xmlns:xsi="http://www.w3.org/2001/XMLSchema-instance" xsi:noNamespaceSchemaLocation="http://sumo.dlr.de/xsd/tripinfo_file.xsd">
    <tripinfo id="left_0" depart="0.00" departLane="52o_0" departPos="5.10" departSpeed="0.00" departDelay="0.00" arrival="92.00" arrivalLane="51i_0" arrivalPos="10.00" arrivalSpeed="11.47" duration="92.00" routeLength="1015.10" waitSteps="0" timeLoss="15.27" rerouteNo="0" devices="tripinfo_left_0" vType="typeWE" speedFactor="1.00" vaporized=""/>
    <tripinfo id="right_2" depart="3.00" departLane="51o_0" departPos="5.10" departSpeed="0.00" departDelay="0.00" arrival="94.00" arrivalLane="52i_0" arrivalPos="10.00" arrivalSpeed="11.78" duration="91.00" routeLength="1015.10" waitSteps="0" timeLoss="14.37" rerouteNo="0" devices="tripinfo_right_2" vType="typeWE" speedFactor="1.00" vaporized=""/>
    <tripinfo id="down_7" depart="13.00" departLane="54o_0" departPos="7.10" departSpeed="0.00" departDelay="0.00" arrival="102.00" arrivalLane="53i_0" arrivalPos="10.00" arrivalSpeed="11.44" duration="89.00" routeLength="1013.10" waitSteps="0" timeLoss="17.21" rerouteNo="0" devices="tripinfo_down_7" vType="typeNS" speedFactor="1.00" vaporized=""/>
    <tripinfo id="down_12" depart="29.00" departLane="54o_0" departPos="7.10" departSpeed="0.00" departDelay="0.00" arrival="119.00" arrivalLane="53i_0" arrivalPos="10.00" arrivalSpeed="11.67" duration="90.00" routeLength="1013.10" waitSteps="0" timeLoss="18.33" rerouteNo="0" devices="tripinfo_down_12" vType="typeNS" speedFactor="1.00" vaporized=""/>
    <tripinfo id="right_3" depart="8.00" departLane="51o_0" departPos="5.10" departSpeed="0.00" departDelay="4.00" arrival="158.00" arrivalLane="52i_0" arrivalPos="10.00" arrivalSpeed="11.42" duration="150.00" routeLength="1015.10" waitSteps="48" timeLoss="73.83" rerouteNo="0" devices="tripinfo_right_3" vType="typeWE" speedFactor="1.00" vaporized=""/>
    <tripinfo id="left_1" depart="5.00" departLane="52o_0" departPos="5.10" departSpeed="0.00" departDelay="3.00" arrival="159.00" arrivalLane="51i_0" arrivalPos="10.00" arrivalSpeed="11.75" duration="154.00" routeLength="1015.10" waitSteps="51" timeLoss="77.53" rerouteNo="0" devices="tripinfo_left_1" vType="typeWE" speedFactor="1.00" vaporized=""/>
    <tripinfo id="left_4" depart="10.00" departLane="52o_0" departPos="5.10" departSpeed="0.00" departDelay="6.00" arrival="160.00" arrivalLane="51i_0" arrivalPos="10.00" arrivalSpeed="11.10" duration="150.00" routeLength="1015.10" waitSteps="49" timeLoss="74.01" rerouteNo="0" devices="tripinfo_left_4" vType="typeWE" speedFactor="1.00" vaporized=""/>
    <tripinfo id="right_6" depart="13.00" departLane="51o_0" departPos="5.10" departSpeed="0.00" departDelay="4.00" arrival="161.00" arrivalLane="52i_0" arrivalPos="10.00" arrivalSpeed="11.42" duration="148.00" routeLength="1015.10" waitSteps="45" timeLoss="71.86" rerouteNo="0" devices="tripinfo_right_6" vType="typeWE" speedFactor="1.00" vaporized=""/>
    <tripinfo id="left_5" depart="15.00" departLane="52o_0" departPos="5.10" departSpeed="0.00" departDelay="9.00" arrival="163.00" arrivalLane="51i_0" arrivalPos="10.00" arrivalSpeed="11.24" duration="148.00" routeLength="1015.10" waitSteps="45" timeLoss="71.47" rerouteNo="0" devices="tripinfo_left_5" vType="typeWE" speedFactor="1.00" vaporized=""/>
    <tripinfo id="left_8" depart="20.00" departLane="52o_0" departPos="5.10" departSpeed="0.00" departDelay="5.00" arrival="164.00" arrivalLane="51i_0" arrivalPos="10.00" arrivalSpeed="11.08" duration="144.00" routeLength="1015.10" waitSteps="41" timeLoss="67.98" rerouteNo="0" devices="tripinfo_left_8" vType="typeWE" speedFactor="1.00" vaporized=""/>
    <tripinfo id="right_13" depart="30.00" departLane="51o_0" departPos="5.10" departSpeed="0.00" departDelay="0.00" arrival="164.00" arrivalLane="52i_0" arrivalPos="10.00" arrivalSpeed="11.64" duration="134.00" routeLength="1015.10" waitSteps="29" timeLoss="57.42" rerouteNo="0" devices="tripinfo_right_13" vType="typeWE" speedFactor="1.00" vaporized=""/>
    <tripinfo id="right_18" depart="42.00" departLane="51o_0" departPos="5.10" departSpeed="0.00" departDelay="0.00" arrival="165.00" arrivalLane="52i_0" arrivalPos="10.00" arrivalSpeed="11.55" duration="123.00" routeLength="1015.10" waitSteps="18" timeLoss="47.12" rerouteNo="0" devices="tripinfo_right_18" vType="typeWE" speedFactor="1.00" vaporized=""/>
    <tripinfo id="left_9" depart="25.00" departLane="52o_0" departPos="5.10" departSpeed="0.00" departDelay="6.00" arrival="166.00" arrivalLane="51i_0" arrivalPos="10.00" arrivalSpeed="11.53" duration="141.00" routeLength="1015.10" waitSteps="37" timeLoss="65.14" rerouteNo="0" devices="tripinfo_left_9" vType="typeWE" speedFactor="1.00" vaporized=""/>
    <tripinfo id="right_23" depart="55.00" departLane="51o_0" departPos="5.10" departSpeed="0.00" departDelay="0.00" arrival="167.00" arrivalLane="52i_0" arrivalPos="10.00" arrivalSpeed="11.60" duration="112.00" routeLength="1015.10" waitSteps="8" timeLoss="35.84" rerouteNo="0" devices="tripinfo_right_23" vType="typeWE" speedFactor="1.00" vaporized=""/>
    <tripinfo id="left_10" depart="30.00" departLane="52o_0" departPos="5.10" departSpeed="0.00" departDelay="8.00" arrival="168.00" arrivalLane="51i_0" arrivalPos="10.00" arrivalSpeed="11.51" duration="138.00" routeLength="1015.10" waitSteps="34" timeLoss="61.97" rerouteNo="0" devices="tripinfo_left_10" vType="typeWE" speedFactor="1.00" vaporized=""/>
    <tripinfo id="right_26" depart="61.00" departLane="51o_0" departPos="5.10" departSpeed="0.00" departDelay="0.00" arrival="169.00" arrivalLane="52i_0" arrivalPos="10.00" arrivalSpeed="11.67" duration="108.00" routeLength="1015.10" waitSteps="2" timeLoss="31.94" rerouteNo="0" devices="tripinfo_right_26" vType="typeWE" speedFactor="1.00" vaporized=""/>
    <tripinfo id="left_11" depart="35.00" departLane="52o_0" departPos="5.10" departSpeed="0.00" departDelay="6.00" arrival="171.00" arrivalLane="51i_0" arrivalPos="10.00" arrivalSpeed="11.36" duration="136.00" routeLength="1015.10" waitSteps="30" timeLoss="59.91" rerouteNo="0" devices="tripinfo_left_11" vType="typeWE" speedFactor="1.00" vaporized=""/>
    <tripinfo id="right_27" depart="69.00" departLane="51o_0" departPos="5.10" departSpeed="0.00" departDelay="0.00" arrival="171.00" arrivalLane="52i_0" arrivalPos="10.00" arrivalSpeed="11.37" duration="102.00" routeLength="1015.10" waitSteps="0" timeLoss="25.96" rerouteNo="0" devices="tripinfo_right_27" vType="typeWE" speedFactor="1.00" vaporized=""/>
    <tripinfo id="left_14" depart="40.00" departLane="52o_0" departPos="5.10" departSpeed="0.00" departDelay="9.00" arrival="173.00" arrivalLane="51i_0" arrivalPos="10.00" arrivalSpeed="11.43" duration="133.00" routeLength="1015.10" waitSteps="26" timeLoss="56.65" rerouteNo="0" devices="tripinfo_left_14" vType="typeWE" speedFactor="1.00" vaporized=""/>
    <tripinfo id="right_28" depart="76.00" departLane="51o_0" departPos="5.10" departSpeed="0.00" departDelay="0.00" arrival="173.00" arrivalLane="52i_0" arrivalPos="10.00" arrivalSpeed="11.38" duration="97.00" routeLength="1015.10" waitSteps="0" timeLoss="21.03" rerouteNo="0" devices="tripinfo_right_28" vType="typeWE" speedFactor="1.00" vaporized=""/>
    <tripinfo id="left_15" depart="46.00" departLane="52o_0" departPos="5.10" departSpeed="0.00" departDelay="13.00" arrival="175.00" arrivalLane="51i_0" arrivalPos="10.00" arrivalSpeed="11.29" duration="129.00" routeLength="1015.10" waitSteps="22" timeLoss="52.85" rerouteNo="0" devices="tripinfo_left_15" vType="typeWE" speedFactor="1.00" vaporized=""/>
    <tripinfo id="right_29" depart="81.00" departLane="51o_0" departPos="5.10" departSpeed="0.00" departDelay="4.00" arrival="175.00" arrivalLane="52i_0" arrivalPos="10.00" arrivalSpeed="11.29" duration="94.00" routeLength="1015.10" waitSteps="0" timeLoss="17.79" rerouteNo="0" devices="tripinfo_right_29" vType="typeWE" speedFactor="1.00" vaporized=""/>
    <tripinfo id="left_16" depart="51.00" departLane="52o_0" departPos="5.10" departSpeed="0.00" departDelay="16.00" arrival="177.00" arrivalLane="51i_0" arrivalPos="10.00" arrivalSpeed="11.42" duration="126.00" routeLength="1015.10" waitSteps="20" timeLoss="49.76" rerouteNo="0" devices="tripinfo_left_16" vType="typeWE" speedFactor="1.00" vaporized=""/>
    <tripinfo id="right_31" depart="86.00" departLane="51o_0" departPos="5.10" departSpeed="0.00" departDelay="2.00" arrival="177.00" arrivalLane="52i_0" arrivalPos="10.00" arrivalSpeed="11.29" duration="91.00" routeLength="1015.10" waitSteps="0" timeLoss="14.97" rerouteNo="0" devices="tripinfo_right_31" vType="typeWE" speedFactor="1.00" vaporized=""/>
    <tripinfo id="left_17" depart="56.00" departLane="52o_0" departPos="5.10" departSpeed="0.00" departDelay="15.00" arrival="179.00" arrivalLane="51i_0" arrivalPos="10.00" arrivalSpeed="11.55" duration="123.00" routeLength="1015.10" waitSteps="15" timeLoss="46.49" rerouteNo="0" devices="tripinfo_left_17" vType="typeWE" speedFactor="1.00" vaporized=""/>
    <tripinfo id="left_19" depart="61.00" departLane="52o_0" departPos="5.10" departSpeed="0.00" departDelay="16.00" arrival="181.00" arrivalLane="51i_0" arrivalPos="10.00" arrivalSpeed="11.84" duration="120.00" routeLength="1015.10" waitSteps="13" timeLoss="43.24" rerouteNo="0" devices="tripinfo_left_19" vType="typeWE" speedFactor="1.00" vaporized=""/>
    <tripinfo id="left_20" depart="66.00" departLane="52o_0" departPos="5.10" departSpeed="0.00" departDelay="20.00" arrival="182.00" arrivalLane="51i_0" arrivalPos="10.00" arrivalSpeed="11.30" duration="116.00" routeLength="1015.10" waitSteps="10" timeLoss="40.15" rerouteNo="0" devices="tripinfo_left_20" vType="typeWE" speedFactor="1.00" vaporized=""/>
    <tripinfo id="right_35" depart="92.00" departLane="51o_0" departPos="5.10" departSpeed="0.00" departDelay="0.00" arrival="184.00" arrivalLane="52i_0" arrivalPos="10.00" arrivalSpeed="10.95" duration="92.00" routeLength="1015.10" waitSteps="0" timeLoss="15.81" rerouteNo="0" devices="tripinfo_right_35" vType="typeWE" speedFactor="1.00" vaporized=""/>
    <tripinfo id="left_21" depart="71.00" departLane="52o_0" departPos="5.10" departSpeed="0.00" departDelay="20.00" arrival="184.00" arrivalLane="51i_0" arrivalPos="10.00" arrivalSpeed="11.22" duration="113.00" routeLength="1015.10" waitSteps="6" timeLoss="37.03" rerouteNo="0" devices="tripinfo_left_21" vType="typeWE" speedFactor="1.00" vaporized=""/>
    <tripinfo id="left_22" depart="76.00" departLane="52o_0" departPos="5.10" departSpeed="0.00" departDelay="23.00" arrival="186.00" arrivalLane="51i_0" arrivalPos="10.00" arrivalSpeed="11.65" duration="110.00" routeLength="1015.10" waitSteps="3" timeLoss="33.89" rerouteNo="0" devices="tripinfo_left_22" vType="typeWE" speedFactor="1.00" vaporized=""/>
    <tripinfo id="left_24" depart="81.00" departLane="52o_0" departPos="5.10" departSpeed="0.00" departDelay="25.00" arrival="188.00" arrivalLane="51i_0" arrivalPos="10.00" arrivalSpeed="11.48" duration="107.00" routeLength="1015.10" waitSteps="0" timeLoss="30.84" rerouteNo="0" devices="tripinfo_left_24" vType="typeWE" speedFactor="1.00" vaporized=""/>
    <tripinfo id="left_25" depart="86.00" departLane="52o_0" departPos="5.10" departSpeed="0.00" departDelay="28.00" arrival="190.00" arrivalLane="51i_0" arrivalPos="10.00" arrivalSpeed="11.79" duration="104.00" routeLength="1015.10" waitSteps="0" timeLoss="27.66" rerouteNo="0" devices="tripinfo_left_25" vType="typeWE" speedFactor="1.00" vaporized=""/>
    <tripinfo id="right_37" depart="99.00" departLane="51o_0" departPos="5.10" departSpeed="0.00" departDelay="0.00" arrival="191.00" arrivalLane="52i_0" arrivalPos="10.00" arrivalSpeed="11.68" duration="92.00" routeLength="1015.10" waitSteps="0" timeLoss="15.73" rerouteNo="0" devices="tripinfo_right_37" vType="typeWE" speedFactor="1.00" vaporized=""/>
    <tripinfo id="left_30" depart="91.00" departLane="52o_0" departPos="5.10" departSpeed="0.00" departDelay="13.00" arrival="192.00" arrivalLane="51i_0" arrivalPos="10.00" arrivalSpeed="11.80" duration="101.00" routeLength="1015.10" waitSteps="0" timeLoss="24.25" rerouteNo="0" devices="tripinfo_left_30" vType="typeWE" speedFactor="1.00" vaporized=""/>
    <tripinfo id="left_32" depart="96.00" departLane="52o_0" departPos="5.10" departSpeed="0.00" departDelay="11.00" arrival="193.00" arrivalLane="51i_0" arrivalPos="10.00" arrivalSpeed="10.73" duration="97.00" routeLength="1015.10" waitSteps="0" timeLoss="20.80" rerouteNo="0" devices="tripinfo_left_32" vType="typeWE" speedFactor="1.00" vaporized=""/>
    <tripinfo id="left_34" depart="101.00" departLane="52o_0" departPos="5.10" departSpeed="0.00" departDelay="10.00" arrival="197.00" arrivalLane="51i_0" arrivalPos="10.00" arrivalSpeed="11.47" duration="96.00" routeLength="1015.10" waitSteps="0" timeLoss="19.40" rerouteNo="0" devices="tripinfo_left_34" vType="typeWE" speedFactor="1.00" vaporized=""/>
    <tripinfo id="down_33" depart="89.00" departLane="54o_0" departPos="7.10" departSpeed="0.00" departDelay="0.00" arrival="209.00" arrivalLane="53i_0" arrivalPos="10.00" arrivalSpeed="11.46" duration="120.00" routeLength="1013.10" waitSteps="20" timeLoss="48.80" rerouteNo="0" devices="tripinfo_down_33" vType="typeNS" speedFactor="1.00" vaporized=""/>
    <tripinfo id="down_36" depart="96.00" departLane="54o_0" departPos="7.10" departSpeed="0.00" departDelay="0.00" arrival="212.00" arrivalLane="53i_0" arrivalPos="10.00" arrivalSpeed="11.63" duration="116.00" routeLength="1013.10" waitSteps="14" timeLoss="44.75" rerouteNo="0" devices="tripinfo_down_36" vType="typeNS" speedFactor="1.00" vaporized=""/>
    <tripinfo id="down_48" depart="122.00" departLane="54o_0" departPos="7.10" departSpeed="0.00" departDelay="0.00" arrival="214.00" arrivalLane="53i_0" arrivalPos="10.00" arrivalSpeed="11.63" duration="92.00" routeLength="1013.10" waitSteps="0" timeLoss="20.75" rerouteNo="0" devices="tripinfo_down_48" vType="typeNS" speedFactor="1.00" vaporized=""/>
    <tripinfo id="left_38" depart="106.00" departLane="52o_0" departPos="5.10" departSpeed="0.00" departDelay="7.00" arrival="261.00" arrivalLane="51i_0" arrivalPos="10.00" arrivalSpeed="11.51" duration="155.00" routeLength="1015.10" waitSteps="52" timeLoss="78.43" rerouteNo="0" devices="tripinfo_left_38" vType="typeWE" speedFactor="1.00" vaporized=""/>
    <tripinfo id="right_41" depart="106.00" departLane="51o_0" departPos="5.10" departSpeed="0.00" departDelay="0.00" arrival="261.00" arrivalLane="52i_0" arrivalPos="10.00" arrivalSpeed="11.41" duration="155.00" routeLength="1015.10" waitSteps="51" timeLoss="78.53" rerouteNo="0" devices="tripinfo_right_41" vType="typeWE" speedFactor="1.00" vaporized=""/>
    <tripinfo id="left_39" depart="111.00" departLane="52o_0" departPos="5.10" departSpeed="0.00" departDelay="10.00" arrival="262.00" arrivalLane="51i_0" arrivalPos="10.00" arrivalSpeed="11.44" duration="151.00" routeLength="1015.10" waitSteps="48" timeLoss="75.17" rerouteNo="0" devices="tripinfo_left_39" vType="typeWE" speedFactor="1.00" vaporized=""/>
    <tripinfo id="right_42" depart="111.00" departLane="51o_0" departPos="5.10" departSpeed="0.00" departDelay="3.00" arrival="263.00" arrivalLane="52i_0" arrivalPos="10.00" arrivalSpeed="11.75" duration="152.00" routeLength="1015.10" waitSteps="49" timeLoss="75.61" rerouteNo="0" devices="tripinfo_right_42" vType="typeWE" speedFactor="1.00" vaporized=""/>
    <tripinfo id="left_40" depart="117.00" departLane="52o_0" departPos="5.10" departSpeed="0.00" departDelay="13.00" arrival="265.00" arrivalLane="51i_0" arrivalPos="10.00" arrivalSpeed="11.83" duration="148.00" routeLength="1015.10" waitSteps="43" timeLoss="71.72" rerouteNo="0" devices="tripinfo_left_40" vType="typeWE" speedFactor="1.00" vaporized=""/>
    <tripinfo id="right_43" depart="116.00" departLane="51o_0" departPos="5.10" departSpeed="0.00" departDelay="5.00" arrival="265.00" arrivalLane="52i_0" arrivalPos="10.00" arrivalSpeed="11.43" duration="149.00" routeLength="1015.10" waitSteps="45" timeLoss="72.75" rerouteNo="0" devices="tripinfo_right_43" vType="typeWE" speedFactor="1.00" vaporized=""/>
    <tripinfo id="left_45" depart="122.00" departLane="52o_0" departPos="5.10" departSpeed="0.00" departDelay="8.00" arrival="267.00" arrivalLane="51i_0" arrivalPos="10.00" arrivalSpeed="11.16" duration="145.00" routeLength="1015.10" waitSteps="40" timeLoss="68.74" rerouteNo="0" devices="tripinfo_left_45" vType="typeWE" speedFactor="1.00" vaporized=""/>
    <tripinfo id="right_44" depart="121.00" departLane="51o_0" departPos="5.10" departSpeed="0.00" departDelay="7.00" arrival="267.00" arrivalLane="52i_0" arrivalPos="10.00" arrivalSpeed="11.55" duration="146.00" routeLength="1015.10" waitSteps="42" timeLoss="69.71" rerouteNo="0" devices="tripinfo_right_44" vType="typeWE" speedFactor="1.00" vaporized=""/>
    <tripinfo id="left_46" depart="127.00" departLane="52o_0" departPos="5.10" departSpeed="0.00" departDelay="9.00" arrival="269.00" arrivalLane="51i_0" arrivalPos="10.00" arrivalSpeed="11.43" duration="142.00" routeLength="1015.10" waitSteps="37" timeLoss="65.51" rerouteNo="0" devices="tripinfo_left_46" vType="typeWE" speedFactor="1.00" vaporized=""/>
    <tripinfo id="right_49" depart="127.00" departLane="51o_0" departPos="5.10" departSpeed="0.00" departDelay="2.00" arrival="269.00" arrivalLane="52i_0" arrivalPos="10.00" arrivalSpeed="11.79" duration="142.00" routeLength="1015.10" waitSteps="36" timeLoss="65.96" rerouteNo="0" devices="tripinfo_right_49" vType="typeWE" speedFactor="1.00" vaporized=""/>
    <tripinfo id="left_47" depart="132.00" departLane="52o_0" departPos="5.10" departSpeed="0.00" departDelay="13.00" arrival="271.00" arrivalLane="51i_0" arrivalPos="10.00" arrivalSpeed="11.33" duration="139.00" routeLength="1015.10" waitSteps="34" timeLoss="62.58" rerouteNo="0" devices="tripinfo_left_47" vType="typeWE" speedFactor="1.00" vaporized=""/>
    <tripinfo id="right_51" depart="135.00" departLane="51o_0" departPos="5.10" departSpeed="0.00" departDelay="0.00" arrival="271.00" arrivalLane="52i_0" arrivalPos="10.00" arrivalSpeed="11.46" duration="136.00" routeLength="1015.10" waitSteps="31" timeLoss="59.80" rerouteNo="0" devices="tripinfo_right_51" vType="typeWE" speedFactor="1.00" vaporized=""/>
    <tripinfo id="left_50" depart="137.00" departLane="52o_0" departPos="5.10" departSpeed="0.00" departDelay="6.00" arrival="273.00" arrivalLane="51i_0" arrivalPos="10.00" arrivalSpeed="10.77" duration="136.00" routeLength="1015.10" waitSteps="29" timeLoss="59.95" rerouteNo="0" devices="tripinfo_left_50" vType="typeWE" speedFactor="1.00" vaporized=""/>
    <tripinfo id="right_53" depart="140.00" departLane="51o_0" departPos="5.10" departSpeed="0.00" departDelay="2.00" arrival="273.00" arrivalLane="52i_0" arrivalPos="10.00" arrivalSpeed="11.32" duration="133.00" routeLength="1015.10" waitSteps="28" timeLoss="56.59" rerouteNo="0" devices="tripinfo_right_53" vType="typeWE" speedFactor="1.00" vaporized=""/>
    <tripinfo id="left_52" depart="143.00" departLane="52o_0" departPos="5.10" departSpeed="0.00" departDelay="8.00" arrival="275.00" arrivalLane="51i_0" arrivalPos="10.00" arrivalSpeed="11.37" duration="132.00" routeLength="1015.10" waitSteps="25" timeLoss="56.04" rerouteNo="0" devices="tripinfo_left_52" vType="typeWE" speedFactor="1.00" vaporized=""/>
    <tripinfo id="right_57" depart="145.00" departLane="51o_0" departPos="5.10" departSpeed="0.00" departDelay="1.00" arrival="275.00" arrivalLane="52i_0" arrivalPos="10.00" arrivalSpeed="11.38" duration="130.00" routeLength="1015.10" waitSteps="25" timeLoss="53.70" rerouteNo="0" devices="tripinfo_right_57" vType="typeWE" speedFactor="1.00" vaporized=""/>
    <tripinfo id="left_54" depart="148.00" departLane="52o_0" departPos="5.10" departSpeed="0.00" departDelay="10.00" arrival="277.00" arrivalLane="51i_0" arrivalPos="10.00" arrivalSpeed="11.60" duration="129.00" routeLength="1015.10" waitSteps="22" timeLoss="52.92" rerouteNo="0" devices="tripinfo_left_54" vType="typeWE" speedFactor="1.00" vaporized=""/>
    <tripinfo id="right_58" depart="150.00" departLane="51o_0" departPos="5.10" departSpeed="0.00" departDelay="5.00" arrival="277.00" arrivalLane="52i_0" arrivalPos="10.00" arrivalSpeed="11.72" duration="127.00" routeLength="1015.10" waitSteps="21" timeLoss="50.72" rerouteNo="0" devices="tripinfo_right_58" vType="typeWE" speedFactor="1.00" vaporized=""/>
    <tripinfo id="left_55" depart="153.00" departLane="52o_0" departPos="5.10" departSpeed="0.00" departDelay="11.00" arrival="279.00" arrivalLane="51i_0" arrivalPos="10.00" arrivalSpeed="11.50" duration="126.00" routeLength="1015.10" waitSteps="18" timeLoss="49.96" rerouteNo="0" devices="tripinfo_left_55" vType="typeWE" speedFactor="1.00" vaporized=""/>
    <tripinfo id="right_60" depart="155.00" departLane="51o_0" departPos="5.10" departSpeed="0.00" departDelay="0.00" arrival="279.00" arrivalLane="52i_0" arrivalPos="10.00" arrivalSpeed="11.77" duration="124.00" routeLength="1015.10" waitSteps="17" timeLoss="47.46" rerouteNo="0" devices="tripinfo_right_60" vType="typeWE" speedFactor="1.00" vaporized=""/>
    <tripinfo id="right_65" depart="168.00" departLane="51o_0" departPos="5.10" departSpeed="0.00" departDelay="1.00" arrival="280.00" arrivalLane="52i_0" arrivalPos="10.00" arrivalSpeed="10.96" duration="112.00" routeLength="1015.10" waitSteps="8" timeLoss="35.93" rerouteNo="0" devices="tripinfo_right_65" vType="typeWE" speedFactor="1.00" vaporized=""/>
    <tripinfo id="left_56" depart="159.00" departLane="52o_0" departPos="5.10" departSpeed="0.00" departDelay="16.00" arrival="281.00" arrivalLane="51i_0" arrivalPos="10.00" arrivalSpeed="11.77" duration="122.00" routeLength="1015.10" waitSteps="14" timeLoss="45.69" rerouteNo="0" devices="tripinfo_left_56" vType="typeWE" speedFactor="1.00" vaporized=""/>
    <tripinfo id="left_59" depart="165.00" departLane="52o_0" departPos="5.10" departSpeed="0.00" departDelay="12.00" arrival="283.00" arrivalLane="51i_0" arrivalPos="10.00" arrivalSpeed="11.52" duration="118.00" routeLength="1015.10" waitSteps="11" timeLoss="41.49" rerouteNo="0" devices="tripinfo_left_59" vType="typeWE" speedFactor="1.00" vaporized=""/>
    <tripinfo id="right_66" depart="173.00" departLane="51o_0" departPos="5.10" departSpeed="0.00" departDelay="5.00" arrival="283.00" arrivalLane="52i_0" arrivalPos="10.00" arrivalSpeed="11.61" duration="110.00" routeLength="1015.10" waitSteps="4" timeLoss="33.29" rerouteNo="0" devices="tripinfo_right_66" vType="typeWE" speedFactor="1.00" vaporized=""/>
    <tripinfo id="right_70" depart="182.00" departLane="51o_0" departPos="5.10" departSpeed="0.00" departDelay="6.00" arrival="284.00" arrivalLane="52i_0" arrivalPos="10.00" arrivalSpeed="10.74" duration="102.00" routeLength="1015.10" waitSteps="0" timeLoss="25.92" rerouteNo="0" devices="tripinfo_right_70" vType="typeWE" speedFactor="1.00" vaporized=""/>
    <tripinfo id="left_61" depart="171.00" departLane="52o_0" departPos="5.10" departSpeed="0.00" departDelay="15.00" arrival="285.00" arrivalLane="51i_0" arrivalPos="10.00" arrivalSpeed="11.74" duration="114.00" routeLength="1015.10" waitSteps="5" timeLoss="37.24" rerouteNo="0" devices="tripinfo_left_61" vType="typeWE" speedFactor="1.00" vaporized=""/>
    <tripinfo id="right_72" depart="193.00" departLane="51o_0" departPos="5.10" departSpeed="0.00" departDelay="12.00" arrival="286.00" arrivalLane="52i_0" arrivalPos="10.00" arrivalSpeed="11.71" duration="93.00" routeLength="1015.10" waitSteps="0" timeLoss="17.01" rerouteNo="0" devices="tripinfo_right_72" vType="typeWE" speedFactor="1.00" vaporized=""/>
    <tripinfo id="left_62" depart="177.00" departLane="52o_0" departPos="5.10" departSpeed="0.00" departDelay="17.00" arrival="287.00" arrivalLane="51i_0" arrivalPos="10.00" arrivalSpeed="11.58" duration="110.00" routeLength="1015.10" waitSteps="2" timeLoss="33.20" rerouteNo="0" devices="tripinfo_left_62" vType="typeWE" speedFactor="1.00" vaporized=""/>
    <tripinfo id="right_73" depart="198.00" departLane="51o_0" departPos="5.10" departSpeed="0.00" departDelay="15.00" arrival="289.00" arrivalLane="52i_0" arrivalPos="10.00" arrivalSpeed="10.93" duration="91.00" routeLength="1015.10" waitSteps="0" timeLoss="14.81" rerouteNo="0" devices="tripinfo_right_73" vType="typeWE" speedFactor="1.00" vaporized=""/>
    <tripinfo id="left_63" depart="182.00" departLane="52o_0" departPos="5.10" departSpeed="0.00" departDelay="18.00" arrival="289.00" arrivalLane="51i_0" arrivalPos="10.00" arrivalSpeed="11.72" duration="107.00" routeLength="1015.10" waitSteps="1" timeLoss="30.63" rerouteNo="0" devices="tripinfo_left_63" vType="typeWE" speedFactor="1.00" vaporized=""/>
    <tripinfo id="left_64" depart="186.00" departLane="52o_0" departPos="5.10" departSpeed="0.00" departDelay="20.00" arrival="291.00" arrivalLane="51i_0" arrivalPos="10.00" arrivalSpeed="11.65" duration="105.00" routeLength="1015.10" waitSteps="1" timeLoss="28.76" rerouteNo="0" devices="tripinfo_left_64" vType="typeWE" speedFactor="1.00" vaporized=""/>
    <tripinfo id="left_67" depart="192.00" departLane="52o_0" departPos="5.10" departSpeed="0.00" departDelay="23.00" arrival="293.00" arrivalLane="51i_0" arrivalPos="10.00" arrivalSpeed="11.55" duration="101.00" routeLength="1015.10" waitSteps="0" timeLoss="24.35" rerouteNo="0" devices="tripinfo_left_67" vType="typeWE" speedFactor="1.00" vaporized=""/>
    <tripinfo id="right_74" depart="203.00" departLane="51o_0" departPos="5.10" departSpeed="0.00" departDelay="19.00" arrival="294.00" arrivalLane="52i_0" arrivalPos="10.00" arrivalSpeed="11.60" duration="91.00" routeLength="1015.10" waitSteps="0" timeLoss="14.81" rerouteNo="0" devices="tripinfo_right_74" vType="typeWE" speedFactor="1.00" vaporized=""/>
    <tripinfo id="left_68" depart="197.00" departLane="52o_0" departPos="5.10" departSpeed="0.00" departDelay="25.00" arrival="295.00" arrivalLane="51i_0" arrivalPos="10.00" arrivalSpeed="11.49" duration="98.00" routeLength="1015.10" waitSteps="0" timeLoss="21.25" rerouteNo="0" devices="tripinfo_left_68" vType="typeWE" speedFactor="1.00" vaporized=""/>
    <tripinfo id="left_71" depart="202.00" departLane="52o_0" departPos="5.10" departSpeed="0.00" departDelay="26.00" arrival="296.00" arrivalLane="51i_0" arrivalPos="10.00" arrivalSpeed="11.38" duration="94.00" routeLength="1015.10" waitSteps="0" timeLoss="18.11" rerouteNo="0" devices="tripinfo_left_71" vType="typeWE" speedFactor="1.00" vaporized=""/>
    <tripinfo id="down_69" depart="172.00" departLane="54o_0" departPos="7.10" departSpeed="0.00" departDelay="0.00" arrival="311.00" arrivalLane="53i_0" arrivalPos="10.00" arrivalSpeed="11.40" duration="139.00" routeLength="1013.10" waitSteps="38" timeLoss="67.62" rerouteNo="0" devices="tripinfo_down_69" vType="typeNS" speedFactor="1.00" vaporized=""/>
    <tripinfo id="down_97" depart="238.00" departLane="54o_0" departPos="7.10" departSpeed="0.00" departDelay="0.00" arrival="326.00" arrivalLane="53i_0" arrivalPos="10.00" arrivalSpeed="11.38" duration="88.00" routeLength="1013.10" waitSteps="0" timeLoss="16.34" rerouteNo="0" devices="tripinfo_down_97" vType="typeNS" speedFactor="1.00" vaporized=""/>
    <tripinfo id="down_99" depart="243.00" departLane="54o_0" departPos="7.10" departSpeed="0.00" departDelay="1.00" arrival="332.00" arrivalLane="53i_0" arrivalPos="10.00" arrivalSpeed="11.49" duration="89.00" routeLength="1013.10" waitSteps="0" timeLoss="17.40" rerouteNo="0" devices="tripinfo_down_99" vType="typeNS" speedFactor="1.00" vaporized=""/>
    <tripinfo id="right_78" depart="208.00" departLane="51o_0" departPos="5.10" departSpeed="0.00" departDelay="11.00" arrival="362.00" arrivalLane="52i_0" arrivalPos="10.00" arrivalSpeed="11.33" duration="154.00" routeLength="1015.10" waitSteps="51" timeLoss="77.75" rerouteNo="0" devices="tripinfo_right_78" vType="typeWE" speedFactor="1.00" vaporized=""/>
    <tripinfo id="left_75" depart="207.00" departLane="52o_0" departPos="5.10" departSpeed="0.00" departDelay="22.00" arrival="363.00" arrivalLane="51i_0" arrivalPos="10.00" arrivalSpeed="11.56" duration="156.00" routeLength="1015.10" waitSteps="53" timeLoss="79.62" rerouteNo="0" devices="tripinfo_left_75" vType="typeWE" speedFactor="1.00" vaporized=""/>
    <tripinfo id="left_76" depart="213.00" departLane="52o_0" departPos="5.10" departSpeed="0.00" departDelay="19.00" arrival="365.00" arrivalLane="51i_0" arrivalPos="10.00" arrivalSpeed="11.37" duration="152.00" routeLength="1015.10" waitSteps="48" timeLoss="75.95" rerouteNo="0" devices="tripinfo_left_76" vType="typeWE" speedFactor="1.00" vaporized=""/>
    <tripinfo id="right_80" depart="213.00" departLane="51o_0" departPos="5.10" departSpeed="0.00" departDelay="13.00" arrival="365.00" arrivalLane="52i_0" arrivalPos="10.00" arrivalSpeed="11.51" duration="152.00" routeLength="1015.10" waitSteps="48" timeLoss="75.76" rerouteNo="0" devices="tripinfo_right_80" vType="typeWE" speedFactor="1.00" vaporized=""/>