<?xml version="1.0" encoding="UTF-8"?>

<!-- generated on Sun Mar  4 18:44:16 2018 by SUMO Version 0.32.0
<?xml version="1.0" encoding="UTF-8"?>

<configuration xmlns:xsi="http://www.w3.org/2001/XMLSchema-instance" xsi:noNamespaceSchemaLocation="http://sumo.dlr.de/xsd/sumoConfiguration.xsd">

    <input>
        <net-file value="data/cross.net.xml"/>
        <route-files value="data/cross.rou.xml"/>
        <additional-files value="data/cross.det.xml,data/cross.det2.xml"/>
    </input>

    <output>
        <tripinfo-output value="fgreen=25_tripinfo.xml"/>
    </output>

    <time>
        <begin value="0"/>
    </time>

    <report>
        <verbose value="true"/>
        <error-log value="errors"/>
        <no-step-log value="true"/>
    </report>

    <traci_server>
        <remote-port value="61336"/>
    </traci_server>

</configuration>
-->

<tripinfos xmlns:xsi="http://www.w3.org/2001/XMLSchema-instance" xsi:noNamespaceSchemaLocation="http://sumo.dlr.de/xsd/tripinfo_file.xsd">
    <tripinfo id="down_7" depart="13.00" departLane="54o_0" departPos="7.10" departSpeed="0.00" departDelay="0.00" arrival="102.00" arrivalLane="53i_0" arrivalPos="10.00" arrivalSpeed="11.45" duration="89.00" routeLength="1013.10" waitSteps="0" timeLoss="17.21" rerouteNo="0" devices="tripinfo_down_7" vType="typeNS" speedFactor="1.00" vaporized=""/>
    <tripinfo id="right_2" depart="3.00" departLane="51o_0" departPos="5.10" departSpeed="0.00" departDelay="0.00" arrival="118.00" arrivalLane="52i_0" arrivalPos="10.00" arrivalSpeed="10.89" duration="115.00" routeLength="1015.10" waitSteps="14" timeLoss="38.98" rerouteNo="0" devices="tripinfo_right_2" vType="typeWE" speedFactor="1.00" vaporized=""/>
    <tripinfo id="left_0" depart="0.00" departLane="52o_0" departPos="5.10" departSpeed="0.00" departDelay="0.00" arrival="119.00" arrivalLane="51i_0" arrivalPos="10.00" arrivalSpeed="11.38" duration="119.00" routeLength="1015.10" waitSteps="16" timeLoss="42.83" rerouteNo="0" devices="tripinfo_left_0" vType="typeWE" speedFactor="1.00" vaporized=""/>
    <tripinfo id="left_1" depart="5.00" departLane="52o_0" departPos="5.10" departSpeed="0.00" departDelay="3.00" arrival="121.00" arrivalLane="51i_0" arrivalPos="10.00" arrivalSpeed="11.47" duration="116.00" routeLength="1015.10" waitSteps="12" timeLoss="39.74" rerouteNo="0" devices="tripinfo_left_1" vType="typeWE" speedFactor="1.00" vaporized=""/>
    <tripinfo id="right_3" depart="8.00" departLane="51o_0" departPos="5.10" departSpeed="0.00" departDelay="4.00" arrival="121.00" arrivalLane="52i_0" arrivalPos="10.00" arrivalSpeed="11.57" duration="113.00" routeLength="1015.10" waitSteps="10" timeLoss="37.20" rerouteNo="0" devices="tripinfo_right_3" vType="typeWE" speedFactor="1.00" vaporized=""/>
    <tripinfo id="left_4" depart="10.00" departLane="52o_0" departPos="5.10" departSpeed="0.00" departDelay="6.00" arrival="123.00" arrivalLane="51i_0" arrivalPos="10.00" arrivalSpeed="11.47" duration="113.00" routeLength="1015.10" waitSteps="10" timeLoss="36.62" rerouteNo="0" devices="tripinfo_left_4" vType="typeWE" speedFactor="1.00" vaporized=""/>
    <tripinfo id="right_6" depart="13.00" departLane="51o_0" departPos="5.10" departSpeed="0.00" departDelay="4.00" arrival="124.00" arrivalLane="52i_0" arrivalPos="10.00" arrivalSpeed="11.81" duration="111.00" routeLength="1015.10" waitSteps="5" timeLoss="34.41" rerouteNo="0" devices="tripinfo_right_6" vType="typeWE" speedFactor="1.00" vaporized=""/>
    <tripinfo id="right_13" depart="30.00" departLane="51o_0" departPos="5.10" departSpeed="0.00" departDelay="0.00" arrival="125.00" arrivalLane="52i_0" arrivalPos="10.00" arrivalSpeed="11.03" duration="95.00" routeLength="1015.10" waitSteps="0" timeLoss="18.92" rerouteNo="0" devices="tripinfo_right_13" vType="typeWE" speedFactor="1.00" vaporized=""/>
    <tripinfo id="left_5" depart="15.00" departLane="52o_0" departPos="5.10" departSpeed="0.00" departDelay="9.00" arrival="125.00" arrivalLane="51i_0" arrivalPos="10.00" arrivalSpeed="11.57" duration="110.00" routeLength="1015.10" waitSteps="7" timeLoss="33.41" rerouteNo="0" devices="tripinfo_left_5" vType="typeWE" speedFactor="1.00" vaporized=""/>
    <tripinfo id="left_8" depart="20.00" departLane="52o_0" departPos="5.10" departSpeed="0.00" departDelay="5.00" arrival="127.00" arrivalLane="51i_0" arrivalPos="10.00" arrivalSpeed="11.47" duration="107.00" routeLength="1015.10" waitSteps="3" timeLoss="31.11" rerouteNo="0" devices="tripinfo_left_8" vType="typeWE" speedFactor="1.00" vaporized=""/>
    <tripinfo id="left_9" depart="25.00" departLane="52o_0" departPos="5.10" departSpeed="0.00" departDelay="6.00" arrival="129.00" arrivalLane="51i_0" arrivalPos="10.00" arrivalSpeed="11.50" duration="104.00" routeLength="1015.10" waitSteps="0" timeLoss="27.97" rerouteNo="0" devices="tripinfo_left_9" vType="typeWE" speedFactor="1.00" vaporized=""/>
    <tripinfo id="left_10" depart="30.00" departLane="52o_0" departPos="5.10" departSpeed="0.00" departDelay="8.00" arrival="131.00" arrivalLane="51i_0" arrivalPos="10.00" arrivalSpeed="11.63" duration="101.00" routeLength="1015.10" waitSteps="0" timeLoss="25.04" rerouteNo="0" devices="tripinfo_left_10" vType="typeWE" speedFactor="1.00" vaporized=""/>
    <tripinfo id="left_11" depart="35.00" departLane="52o_0" departPos="5.10" departSpeed="0.00" departDelay="6.00" arrival="133.00" arrivalLane="51i_0" arrivalPos="10.00" arrivalSpeed="11.43" duration="98.00" routeLength="1015.10" waitSteps="0" timeLoss="21.78" rerouteNo="0" devices="tripinfo_left_11" vType="typeWE" speedFactor="1.00" vaporized=""/>
    <tripinfo id="right_18" depart="42.00" departLane="51o_0" departPos="5.10" departSpeed="0.00" departDelay="0.00" arrival="134.00" arrivalLane="52i_0" arrivalPos="10.00" arrivalSpeed="11.51" duration="92.00" routeLength="1015.10" waitSteps="0" timeLoss="15.66" rerouteNo="0" devices="tripinfo_right_18" vType="typeWE" speedFactor="1.00" vaporized=""/>
    <tripinfo id="left_14" depart="40.00" departLane="52o_0" departPos="5.10" departSpeed="0.00" departDelay="9.00" arrival="135.00" arrivalLane="51i_0" arrivalPos="10.00" arrivalSpeed="11.34" duration="95.00" routeLength="1015.10" waitSteps="0" timeLoss="18.55" rerouteNo="0" devices="tripinfo_left_14" vType="typeWE" speedFactor="1.00" vaporized=""/>
    <tripinfo id="down_12" depart="29.00" departLane="54o_0" departPos="7.10" departSpeed="0.00" departDelay="0.00" arrival="150.00" arrivalLane="53i_0" arrivalPos="10.00" arrivalSpeed="11.31" duration="121.00" routeLength="1013.10" waitSteps="19" timeLoss="49.05" rerouteNo="0" devices="tripinfo_down_12" vType="typeNS" speedFactor="1.00" vaporized=""/>
    <tripinfo id="left_15" depart="46.00" departLane="52o_0" departPos="5.10" departSpeed="0.00" departDelay="13.00" arrival="179.00" arrivalLane="51i_0" arrivalPos="10.00" arrivalSpeed="11.48" duration="133.00" routeLength="1015.10" waitSteps="31" timeLoss="57.04" rerouteNo="0" devices="tripinfo_left_15" vType="typeWE" speedFactor="1.00" vaporized=""/>
    <tripinfo id="right_23" depart="55.00" departLane="51o_0" departPos="5.10" departSpeed="0.00" departDelay="0.00" arrival="181.00" arrivalLane="52i_0" arrivalPos="10.00" arrivalSpeed="11.42" duration="126.00" routeLength="1015.10" waitSteps="24" timeLoss="49.92" rerouteNo="0" devices="tripinfo_right_23" vType="typeWE" speedFactor="1.00" vaporized=""/>
    <tripinfo id="left_16" depart="51.00" departLane="52o_0" departPos="5.10" departSpeed="0.00" departDelay="16.00" arrival="182.00" arrivalLane="51i_0" arrivalPos="10.00" arrivalSpeed="11.48" duration="131.00" routeLength="1015.10" waitSteps="29" timeLoss="54.56" rerouteNo="0" devices="tripinfo_left_16" vType="typeWE" speedFactor="1.00" vaporized=""/>
    <tripinfo id="right_26" depart="61.00" departLane="51o_0" departPos="5.10" departSpeed="0.00" departDelay="0.00" arrival="183.00" arrivalLane="52i_0" arrivalPos="10.00" arrivalSpeed="11.41" duration="122.00" routeLength="1015.10" waitSteps="19" timeLoss="45.91" rerouteNo="0" devices="tripinfo_right_26" vType="typeWE" speedFactor="1.00" vaporized=""/>
    <tripinfo id="left_17" depart="56.00" departLane="52o_0" departPos="5.10" departSpeed="0.00" departDelay="15.00" arrival="184.00" arrivalLane="51i_0" arrivalPos="10.00" arrivalSpeed="11.52" duration="128.00" routeLength="1015.10" waitSteps="23" timeLoss="52.00" rerouteNo="0" devices="tripinfo_left_17" vType="typeWE" speedFactor="1.00" vaporized=""/>
    <tripinfo id="right_27" depart="69.00" departLane="51o_0" departPos="5.10" departSpeed="0.00" departDelay="0.00" arrival="185.00" arrivalLane="52i_0" arrivalPos="10.00" arrivalSpeed="11.54" duration="116.00" routeLength="1015.10" waitSteps="11" timeLoss="39.67" rerouteNo="0" devices="tripinfo_right_27" vType="typeWE" speedFactor="1.00" vaporized=""/>
    <tripinfo id="left_19" depart="61.00" departLane="52o_0" departPos="5.10" departSpeed="0.00" departDelay="16.00" arrival="187.00" arrivalLane="51i_0" arrivalPos="10.00" arrivalSpeed="11.37" duration="126.00" routeLength="1015.10" waitSteps="22" timeLoss="49.40" rerouteNo="0" devices="tripinfo_left_19" vType="typeWE" speedFactor="1.00" vaporized=""/>
    <tripinfo id="right_28" depart="76.00" departLane="51o_0" departPos="5.10" departSpeed="0.00" departDelay="0.00" arrival="187.00" arrivalLane="52i_0" arrivalPos="10.00" arrivalSpeed="11.89" duration="111.00" routeLength="1015.10" waitSteps="6" timeLoss="34.63" rerouteNo="0" devices="tripinfo_right_28" vType="typeWE" speedFactor="1.00" vaporized=""/>
    <tripinfo id="left_20" depart="67.00" departLane="52o_0" departPos="5.10" departSpeed="0.00" departDelay="21.00" arrival="188.00" arrivalLane="51i_0" arrivalPos="10.00" arrivalSpeed="11.54" duration="121.00" routeLength="1015.10" waitSteps="17" timeLoss="45.24" rerouteNo="0" devices="tripinfo_left_20" vType="typeWE" speedFactor="1.00" vaporized=""/>
    <tripinfo id="right_29" depart="81.00" departLane="51o_0" departPos="5.10" departSpeed="0.00" departDelay="4.00" arrival="189.00" arrivalLane="52i_0" arrivalPos="10.00" arrivalSpeed="11.33" duration="108.00" routeLength="1015.10" waitSteps="5" timeLoss="31.49" rerouteNo="0" devices="tripinfo_right_29" vType="typeWE" speedFactor="1.00" vaporized=""/>
    <tripinfo id="left_21" depart="72.00" departLane="52o_0" departPos="5.10" departSpeed="0.00" departDelay="21.00" arrival="190.00" arrivalLane="51i_0" arrivalPos="10.00" arrivalSpeed="11.22" duration="118.00" routeLength="1015.10" waitSteps="12" timeLoss="42.20" rerouteNo="0" devices="tripinfo_left_21" vType="typeWE" speedFactor="1.00" vaporized=""/>
    <tripinfo id="right_31" depart="86.00" departLane="51o_0" departPos="5.10" departSpeed="0.00" departDelay="2.00" arrival="191.00" arrivalLane="52i_0" arrivalPos="10.00" arrivalSpeed="11.56" duration="105.00" routeLength="1015.10" waitSteps="0" timeLoss="28.70" rerouteNo="0" devices="tripinfo_right_31" vType="typeWE" speedFactor="1.00" vaporized=""/>
    <tripinfo id="left_22" depart="77.00" departLane="52o_0" departPos="5.10" departSpeed="0.00" departDelay="24.00" arrival="192.00" arrivalLane="51i_0" arrivalPos="10.00" arrivalSpeed="11.57" duration="115.00" routeLength="1015.10" waitSteps="10" timeLoss="39.01" rerouteNo="0" devices="tripinfo_left_22" vType="typeWE" speedFactor="1.00" vaporized=""/>
    <tripinfo id="right_35" depart="92.00" departLane="51o_0" departPos="5.10" departSpeed="0.00" departDelay="0.00" arrival="193.00" arrivalLane="52i_0" arrivalPos="10.00" arrivalSpeed="11.50" duration="101.00" routeLength="1015.10" waitSteps="0" timeLoss="24.58" rerouteNo="0" devices="tripinfo_right_35" vType="typeWE" speedFactor="1.00" vaporized=""/>
    <tripinfo id="left_24" depart="82.00" departLane="52o_0" departPos="5.10" departSpeed="0.00" departDelay="26.00" arrival="194.00" arrivalLane="51i_0" arrivalPos="10.00" arrivalSpeed="11.72" duration="112.00" routeLength="1015.10" waitSteps="7" timeLoss="35.79" rerouteNo="0" devices="tripinfo_left_24" vType="typeWE" speedFactor="1.00" vaporized=""/>
    <tripinfo id="right_37" depart="99.00" departLane="51o_0" departPos="5.10" departSpeed="0.00" departDelay="0.00" arrival="195.00" arrivalLane="52i_0" arrivalPos="10.00" arrivalSpeed="11.88" duration="96.00" routeLength="1015.10" waitSteps="0" timeLoss="19.40" rerouteNo="0" devices="tripinfo_right_37" vType="typeWE" speedFactor="1.00" vaporized=""/>
    <tripinfo id="left_25" depart="87.00" departLane="52o_0" departPos="5.10" departSpeed="0.00" departDelay="29.00" arrival="196.00" arrivalLane="51i_0" arrivalPos="10.00" arrivalSpeed="11.69" duration="109.00" routeLength="1015.10" waitSteps="4" timeLoss="32.75" rerouteNo="0" devices="tripinfo_left_25" vType="typeWE" speedFactor="1.00" vaporized=""/>
    <tripinfo id="right_41" depart="106.00" departLane="51o_0" departPos="5.10" departSpeed="0.00" departDelay="0.00" arrival="198.00" arrivalLane="52i_0" arrivalPos="10.00" arrivalSpeed="11.66" duration="92.00" routeLength="1015.10" waitSteps="0" timeLoss="15.23" rerouteNo="0" devices="tripinfo_right_41" vType="typeWE" speedFactor="1.00" vaporized=""/>
    <tripinfo id="down_33" depart="89.00" departLane="54o_0" departPos="7.10" departSpeed="0.00" departDelay="0.00" arrival="212.00" arrivalLane="53i_0" arrivalPos="10.00" arrivalSpeed="11.26" duration="123.00" routeLength="1013.10" waitSteps="23" timeLoss="51.71" rerouteNo="0" devices="tripinfo_down_33" vType="typeNS" speedFactor="1.00" vaporized=""/>
    <tripinfo id="down_36" depart="96.00" departLane="54o_0" departPos="7.10" departSpeed="0.00" departDelay="0.00" arrival="214.00" arrivalLane="53i_0" arrivalPos="10.00" arrivalSpeed="11.34" duration="118.00" routeLength="1013.10" waitSteps="17" timeLoss="46.71" rerouteNo="0" devices="tripinfo_down_36" vType="typeNS" speedFactor="1.00" vaporized=""/>
    <tripinfo id="down_48" depart="122.00" departLane="54o_0" departPos="7.10" departSpeed="0.00" departDelay="0.00" arrival="216.00" arrivalLane="53i_0" arrivalPos="10.00" arrivalSpeed="11.59" duration="94.00" routeLength="1013.10" waitSteps="0" timeLoss="22.64" rerouteNo="0" devices="tripinfo_down_48" vType="typeNS" speedFactor="1.00" vaporized=""/>
    <tripinfo id="right_42" depart="111.00" departLane="51o_0" departPos="5.10" departSpeed="0.00" departDelay="3.00" arrival="242.00" arrivalLane="52i_0" arrivalPos="10.00" arrivalSpeed="10.77" duration="131.00" routeLength="1015.10" waitSteps="29" timeLoss="55.05" rerouteNo="0" devices="tripinfo_right_42" vType="typeWE" speedFactor="1.00" vaporized=""/>
    <tripinfo id="left_30" depart="93.00" departLane="52o_0" departPos="5.10" departSpeed="0.00" departDelay="15.00" arrival="243.00" arrivalLane="51i_0" arrivalPos="10.00" arrivalSpeed="11.39" duration="150.00" routeLength="1015.10" waitSteps="35" timeLoss="73.73" rerouteNo="0" devices="tripinfo_left_30" vType="typeWE" speedFactor="1.00" vaporized=""/>
    <tripinfo id="right_43" depart="116.00" departLane="51o_0" departPos="5.10" departSpeed="0.00" departDelay="5.00" arrival="244.00" arrivalLane="52i_0" arrivalPos="10.00" arrivalSpeed="11.47" duration="128.00" routeLength="1015.10" waitSteps="26" timeLoss="52.08" rerouteNo="0" devices="tripinfo_right_43" vType="typeWE" speedFactor="1.00" vaporized=""/>
    <tripinfo id="left_32" depart="98.00" departLane="52o_0" departPos="5.10" departSpeed="0.00" departDelay="13.00" arrival="245.00" arrivalLane="51i_0" arrivalPos="10.00" arrivalSpeed="11.58" duration="147.00" routeLength="1015.10" waitSteps="34" timeLoss="70.54" rerouteNo="0" devices="tripinfo_left_32" vType="typeWE" speedFactor="1.00" vaporized=""/>
    <tripinfo id="left_34" depart="103.00" departLane="52o_0" departPos="5.10" departSpeed="0.00" departDelay="12.00" arrival="246.00" arrivalLane="51i_0" arrivalPos="10.00" arrivalSpeed="10.71" duration="143.00" routeLength="1015.10" waitSteps="33" timeLoss="66.97" rerouteNo="0" devices="tripinfo_left_34" vType="typeWE" speedFactor="1.00" vaporized=""/>
    <tripinfo id="right_44" depart="125.00" departLane="51o_0" departPos="5.10" departSpeed="0.00" departDelay="11.00" arrival="247.00" arrivalLane="52i_0" arrivalPos="10.00" arrivalSpeed="11.31" duration="122.00" routeLength="1015.10" waitSteps="18" timeLoss="46.05" rerouteNo="0" devices="tripinfo_right_44" vType="typeWE" speedFactor="1.00" vaporized=""/>
    <tripinfo id="left_38" depart="108.00" departLane="52o_0" departPos="5.10" departSpeed="0.00" departDelay="9.00" arrival="248.00" arrivalLane="51i_0" arrivalPos="10.00" arrivalSpeed="11.48" duration="140.00" routeLength="1015.10" waitSteps="33" timeLoss="64.12" rerouteNo="0" devices="tripinfo_left_38" vType="typeWE" speedFactor="1.00" vaporized=""/>
    <tripinfo id="left_39" depart="113.00" departLane="52o_0" departPos="5.10" departSpeed="0.00" departDelay="12.00" arrival="250.00" arrivalLane="51i_0" arrivalPos="10.00" arrivalSpeed="11.56" duration="137.00" routeLength="1015.10" waitSteps="33" timeLoss="61.17" rerouteNo="0" devices="tripinfo_left_39" vType="typeWE" speedFactor="1.00" vaporized=""/>
    <tripinfo id="right_49" depart="135.00" departLane="51o_0" departPos="5.10" departSpeed="0.00" departDelay="10.00" arrival="250.00" arrivalLane="52i_0" arrivalPos="10.00" arrivalSpeed="11.47" duration="115.00" routeLength="1015.10" waitSteps="9" timeLoss="38.40" rerouteNo="0" devices="tripinfo_right_49" vType="typeWE" speedFactor="1.00" vaporized=""/>
    <tripinfo id="left_40" depart="118.00" departLane="52o_0" departPos="5.10" departSpeed="0.00" departDelay="14.00" arrival="252.00" arrivalLane="51i_0" arrivalPos="10.00" arrivalSpeed="11.66" duration="134.00" routeLength="1015.10" waitSteps="31" timeLoss="58.13" rerouteNo="0" devices="tripinfo_left_40" vType="typeWE" speedFactor="1.00" vaporized=""/>
    <tripinfo id="right_51" depart="140.00" departLane="51o_0" departPos="5.10" departSpeed="0.00" departDelay="5.00" arrival="252.00" arrivalLane="52i_0" arrivalPos="10.00" arrivalSpeed="11.58" duration="112.00" routeLength="1015.10" waitSteps="5" timeLoss="35.44" rerouteNo="0" devices="tripinfo_right_51" vType="typeWE" speedFactor="1.00" vaporized=""/>
    <tripinfo id="left_45" depart="125.00" departLane="52o_0" departPos="5.10" departSpeed="0.00" departDelay="11.00" arrival="254.00" arrivalLane="51i_0" arrivalPos="10.00" arrivalSpeed="11.38" duration="129.00" routeLength="1015.10" waitSteps="22" timeLoss="52.89" rerouteNo="0" devices="tripinfo_left_45" vType="typeWE" speedFactor="1.00" vaporized=""/>
    <tripinfo id="right_53" depart="145.00" departLane="51o_0" departPos="5.10" departSpeed="0.00" departDelay="7.00" arrival="254.00" arrivalLane="52i_0" arrivalPos="10.00" arrivalSpeed="11.86" duration="109.00" routeLength="1015.10" waitSteps="2" timeLoss="32.28" rerouteNo="0" devices="tripinfo_right_53" vType="typeWE" speedFactor="1.00" vaporized=""/>
    <tripinfo id="right_57" depart="150.00" departLane="51o_0" departPos="5.10" departSpeed="0.00" departDelay="6.00" arrival="255.00" arrivalLane="52i_0" arrivalPos="10.00" arrivalSpeed="11.81" duration="105.00" routeLength="1015.10" waitSteps="1" timeLoss="29.03" rerouteNo="0" devices="tripinfo_right_57" vType="typeWE" speedFactor="1.00" vaporized=""/>
    <tripinfo id="left_46" depart="130.00" departLane="52o_0" departPos="5.10" departSpeed="0.00" departDelay="12.00" arrival="256.00" arrivalLane="51i_0" arrivalPos="10.00" arrivalSpeed="11.29" duration="126.00" routeLength="1015.10" waitSteps="22" timeLoss="49.73" rerouteNo="0" devices="tripinfo_left_46" vType="typeWE" speedFactor="1.00" vaporized=""/>
    <tripinfo id="left_47" depart="135.00" departLane="52o_0" departPos="5.10" departSpeed="0.00" departDelay="16.00" arrival="258.00" arrivalLane="51i_0" arrivalPos="10.00" arrivalSpeed="11.27" duration="123.00" routeLength="1015.10" waitSteps="18" timeLoss="46.56" rerouteNo="0" devices="tripinfo_left_47" vType="typeWE" speedFactor="1.00" vaporized=""/>
    <tripinfo id="right_58" depart="156.00" departLane="51o_0" departPos="5.10" departSpeed="0.00" departDelay="11.00" arrival="258.00" arrivalLane="52i_0" arrivalPos="10.00" arrivalSpeed="11.61" duration="102.00" routeLength="1015.10" waitSteps="0" timeLoss="25.49" rerouteNo="0" devices="tripinfo_right_58" vType="typeWE" speedFactor="1.00" vaporized=""/>
    <tripinfo id="right_60" depart="161.00" departLane="51o_0" departPos="5.10" departSpeed="0.00" departDelay="6.00" arrival="260.00" arrivalLane="52i_0" arrivalPos="10.00" arrivalSpeed="11.65" duration="99.00" routeLength="1015.10" waitSteps="0" timeLoss="22.49" rerouteNo="0" devices="tripinfo_right_60" vType="typeWE" speedFactor="1.00" vaporized=""/>
    <tripinfo id="down_69" depart="172.00" departLane="54o_0" departPos="7.10" departSpeed="0.00" departDelay="0.00" arrival="274.00" arrivalLane="53i_0" arrivalPos="10.00" arrivalSpeed="11.56" duration="102.00" routeLength="1013.10" waitSteps="2" timeLoss="30.17" rerouteNo="0" devices="tripinfo_down_69" vType="typeNS" speedFactor="1.00" vaporized=""/>
    <tripinfo id="left_50" depart="140.00" departLane="52o_0" departPos="5.10" departSpeed="0.00" departDelay="9.00" arrival="304.00" arrivalLane="51i_0" arrivalPos="10.00" arrivalSpeed="11.40" duration="164.00" routeLength="1015.10" waitSteps="51" timeLoss="88.19" rerouteNo="0" devices="tripinfo_left_50" vType="typeWE" speedFactor="1.00" vaporized=""/>
    <tripinfo id="right_65" depart="167.00" departLane="51o_0" departPos="5.10" departSpeed="0.00" departDelay="0.00" arrival="305.00" arrivalLane="52i_0" arrivalPos="10.00" arrivalSpeed="11.26" duration="138.00" routeLength="1015.10" waitSteps="33" timeLoss="61.95" rerouteNo="0" devices="tripinfo_right_65" vType="typeWE" speedFactor="1.00" vaporized=""/>
    <tripinfo id="left_52" depart="145.00" departLane="52o_0" departPos="5.10" departSpeed="0.00" departDelay="10.00" arrival="306.00" arrivalLane="51i_0" arrivalPos="10.00" arrivalSpeed="11.28" duration="161.00" routeLength="1015.10" waitSteps="46" timeLoss="84.99" rerouteNo="0" devices="tripinfo_left_52" vType="typeWE" speedFactor="1.00" vaporized=""/>
    <tripinfo id="right_66" depart="172.00" departLane="51o_0" departPos="5.10" departSpeed="0.00" departDelay="4.00" arrival="307.00" arrivalLane="52i_0" arrivalPos="10.00" arrivalSpeed="11.53" duration="135.00" routeLength="1015.10" waitSteps="32" timeLoss="59.07" rerouteNo="0" devices="tripinfo_right_66" vType="typeWE" speedFactor="1.00" vaporized=""/>
    <tripinfo id="left_54" depart="150.00" departLane="52o_0" departPos="5.10" departSpeed="0.00" departDelay="12.00" arrival="309.00" arrivalLane="51i_0" arrivalPos="10.00" arrivalSpeed="11.47" duration="159.00" routeLength="1015.10" waitSteps="42" timeLoss="82.40" rerouteNo="0" devices="tripinfo_left_54" vType="typeWE" speedFactor="1.00" vaporized=""/>
    <tripinfo id="right_70" depart="177.00" departLane="51o_0" departPos="5.10" departSpeed="0.00" departDelay="1.00" arrival="309.00" arrivalLane="52i_0" arrivalPos="10.00" arrivalSpeed="11.63" duration="132.00" routeLength="1015.10" waitSteps="28" timeLoss="55.82" rerouteNo="0" devices="tripinfo_right_70" vType="typeWE" speedFactor="1.00" vaporized=""/>
    <tripinfo id="left_55" depart="155.00" departLane="52o_0" departPos="5.10" departSpeed="0.00" departDelay="13.00" arrival="311.00" arrivalLane="51i_0" arrivalPos="10.00" arrivalSpeed="11.32" duration="156.00" routeLength="1015.10" waitSteps="37" timeLoss="79.95" rerouteNo="0" devices="tripinfo_left_55" vType="typeWE" speedFactor="1.00" vaporized=""/>
    <tripinfo id="right_72" depart="182.00" departLane="51o_0" departPos="5.10" departSpeed="0.00" departDelay="1.00" arrival="311.00" arrivalLane="52i_0" arrivalPos="10.00" arrivalSpeed="11.51" duration="129.00" routeLength="1015.10" waitSteps="23" timeLoss="53.20" rerouteNo="0" devices="tripinfo_right_72" vType="typeWE" speedFactor="1.00" vaporized=""/>
    <tripinfo id="left_56" depart="160.00" departLane="52o_0" departPos="5.10" departSpeed="0.00" departDelay="17.00" arrival="313.00" arrivalLane="51i_0" arrivalPos="10.00" arrivalSpeed="11.24" duration="153.00" routeLength="1015.10" waitSteps="32" timeLoss="76.99" rerouteNo="0" devices="tripinfo_left_56" vType="typeWE" speedFactor="1.00" vaporized=""/>
    <tripinfo id="right_73" depart="188.00" departLane="51o_0" departPos="5.10" departSpeed="0.00" departDelay="5.00" arrival="313.00" arrivalLane="52i_0" arrivalPos="10.00" arrivalSpeed="11.45" duration="125.00" routeLength="1015.10" waitSteps="22" timeLoss="49.20" rerouteNo="0" devices="tripinfo_right_73" vType="typeWE" speedFactor="1.00" vaporized=""/>
    <tripinfo id="left_59" depart="165.00" departLane="52o_0" departPos="5.10" departSpeed="0.00" departDelay="12.00" arrival="315.00" arrivalLane="51i_0" arrivalPos="10.00" arrivalSpeed="11.57" duration="150.00" routeLength="1015.10" waitSteps="32" timeLoss="74.06" rerouteNo="0" devices="tripinfo_left_59" vType="typeWE" speedFactor="1.00" vaporized=""/>
    <tripinfo id="right_74" depart="194.00" departLane="51o_0" departPos="5.10" departSpeed="0.00" departDelay="10.00" arrival="315.00" arrivalLane="52i_0" arrivalPos="10.00" arrivalSpeed="11.55" duration="121.00" routeLength="1015.10" waitSteps="15" timeLoss="45.20" rerouteNo="0" devices="tripinfo_right_74" vType="typeWE" speedFactor="1.00" vaporized=""/>
    <tripinfo id="left_61" depart="170.00" departLane="52o_0" departPos="5.10" departSpeed="0.00" departDelay="14.00" arrival="317.00" arrivalLane="51i_0" arrivalPos="10.00" arrivalSpeed="11.72" duration="147.00" routeLength="1015.10" waitSteps="31" timeLoss="70.96" rerouteNo="0" devices="tripinfo_left_61" vType="typeWE" speedFactor="1.00" vaporized=""/>
    <tripinfo id="right_78" depart="199.00" departLane="51o_0" departPos="5.10" departSpeed="0.00" departDelay="2.00" arrival="317.00" arrivalLane="52i_0" arrivalPos="10.00" arrivalSpeed="11.47" duration="118.00" routeLength="1015.10" waitSteps="13" timeLoss="41.99" rerouteNo="0" devices="tripinfo_right_78" vType="typeWE" speedFactor="1.00" vaporized=""/>
    <tripinfo id="left_62" depart="175.00" departLane="52o_0" departPos="5.10" departSpeed="0.00" departDelay="15.00" arrival="319.00" arrivalLane="51i_0" arrivalPos="10.00" arrivalSpeed="11.59" duration="144.00" routeLength="1015.10" waitSteps="31" timeLoss="67.71" rerouteNo="0" devices="tripinfo_left_62" vType="typeWE" speedFactor="1.00" vaporized=""/>
    <tripinfo id="right_80" depart="204.00" departLane="51o_0" departPos="5.10" departSpeed="0.00" departDelay="4.00" arrival="319.00" arrivalLane="52i_0" arrivalPos="10.00" arrivalSpeed="11.48" duration="115.00" routeLength="1015.10" waitSteps="11" timeLoss="38.80" rerouteNo="0" devices="tripinfo_right_80" vType="typeWE" speedFactor="1.00" vaporized=""/>
    <tripinfo id="left_63" depart="181.00" departLane="52o_0" departPos="5.10" departSpeed="0.00" departDelay="17.00" arrival="321.00" arrivalLane="51i_0" arrivalPos="10.00" arrivalSpeed="11.54" duration="140.00" routeLength="1015.10" waitSteps="30" timeLoss="63.65" rerouteNo="0" devices="tripinfo_left_63" vType="typeWE" speedFactor="1.00" vaporized=""/>
    <tripinfo id="right_81" depart="209.00" departLane="51o_0" departPos="5.10" departSpeed="0.00" departDelay="2.00" arrival="321.00" arrivalLane="52i_0" arrivalPos="10.00" arrivalSpeed="11.28" duration="112.00" routeLength="1015.10" waitSteps="4" timeLoss="35.56" rerouteNo="0" devices="tripinfo_right_81" vType="typeWE" speedFactor="1.00" vaporized=""/>
    <tripinfo id="down_97" depart="238.00" departLane="54o_0" departPos="7.10" departSpeed="0.00" departDelay="0.00" arrival="327.00" arrivalLane="53i_0" arrivalPos="10.00" arrivalSpeed="11.49" duration="89.00" routeLength="1013.10" waitSteps="0" timeLoss="17.51" rerouteNo="0" devices="tripinfo_down_97" vType="typeNS" speedFactor="1.00" vaporized=""/>
    <tripinfo id="down_99" depart="244.00" departLane="54o_0" departPos="7.10" departSpeed="0.00" departDelay="2.00" arrival="333.00" arrivalLane="53i_0" arrivalPos="10.00" arrivalSpeed="11.64" duration="89.00" routeLength="1013.10" waitSteps="0" timeLoss="17.35" rerouteNo="0" devices="tripinfo_down_99" vType="typeNS" speedFactor="1.00" vaporized=""/>
    <tripinfo id="left_64" depart="195.00" departLane="52o_0" departPos="5.10" departSpeed="0.00" departDelay="29.00" arrival="366.00" arrivalLane="51i_0" arrivalPos="10.00" arrivalSpeed="11.41" duration="171.00" routeLength="1015.10" waitSteps="56" timeLoss="95.08" rerouteNo="0" devices="tripinfo_left_64" vType="typeWE" speedFactor="1.00" vaporized=""/>
    <tripinfo id="right_83" depart="215.00" departLane="51o_0" departPos="5.10" departSpeed="0.00" departDelay="4.00" arrival="367.00" arrivalLane="52i_0" arrivalPos="10.00" arrivalSpeed="11.65" duration="152.00" routeLength="1015.10" waitSteps="36" timeLoss="75.80" rerouteNo="0" devices="tripinfo_right_83" vType="typeWE" speedFactor="1.00" vaporized=""/>
    <tripinfo id="left_67" depart="200.00" departLane="52o_0" departPos="5.10" departSpeed="0.00" departDelay="31.00" arrival="369.00" arrivalLane="51i_0" arrivalPos="10.00" arrivalSpeed="11.43" duration="169.00" routeLength="1015.10" waitSteps="52" timeLoss="92.76" rerouteNo="0" devices="tripinfo_left_67" vType="typeWE" speedFactor="1.00" vaporized=""/>
    <tripinfo id="right_85" depart="220.00" departLane="51o_0" departPos="5.10" departSpeed="0.00" departDelay="8.00" arrival="369.00" arrivalLane="52i_0" arrivalPos="10.00" arrivalSpeed="11.65" duration="149.00" routeLength="1015.10" waitSteps="34" timeLoss="72.72" rerouteNo="0" devices="tripinfo_right_85" vType="typeWE" speedFactor="1.00" vaporized=""/>
    <tripinfo id="left_68" depart="205.00" departLane="52o_0" departPos="5.10" departSpeed="0.00" departDelay="33.00" arrival="371.00" arrivalLane="51i_0" arrivalPos="10.00" arrivalSpeed="11.19" duration="166.00" routeLength="1015.10" waitSteps="46" timeLoss="89.65" rerouteNo="0" devices="tripinfo_left_68" vType="typeWE" speedFactor="1.00" vaporized=""/>