<?xml version="1.0" encoding="UTF-8"?>

<!-- generated on Sun Mar  4 18:58:34 2018 by SUMO gui Version 0.32.0
<?xml version="1.0" encoding="UTF-8"?>

<configuration xmlns:xsi="http://www.w3.org/2001/XMLSchema-instance" xsi:noNamespaceSchemaLocation="http://sumo.dlr.de/xsd/sumoConfiguration.xsd">

    <input>
        <net-file value="data/cross.net.xml"/>
        <route-files value="data/cross.rou.xml"/>
        <additional-files value="data/cross.det.xml,data/cross.det2.xml"/>
    </input>

    <output>
        <tripinfo-output value="fgreen=10_tripinfo.xml"/>
    </output>

    <time>
        <begin value="0"/>
    </time>

    <report>
        <verbose value="true"/>
        <error-log value="errors"/>
        <no-step-log value="true"/>
    </report>

    <traci_server>
        <remote-port value="61491"/>
    </traci_server>

</configuration>
-->

<tripinfos xmlns:xsi="http://www.w3.org/2001/XMLSchema-instance" xsi:noNamespaceSchemaLocation="http://sumo.dlr.de/xsd/tripinfo_file.xsd">
    <tripinfo id="down_7" depart="13.00" departLane="54o_0" departPos="7.10" departSpeed="0.00" departDelay="0.00" arrival="102.00" arrivalLane="53i_0" arrivalPos="10.00" arrivalSpeed="11.56" duration="89.00" routeLength="1013.10" waitSteps="0" timeLoss="17.30" rerouteNo="0" devices="tripinfo_down_7" vType="typeNS" speedFactor="1.00" vaporized=""/>
    <tripinfo id="left_0" depart="0.00" departLane="52o_0" departPos="5.10" departSpeed="0.00" departDelay="0.00" arrival="120.00" arrivalLane="51i_0" arrivalPos="10.00" arrivalSpeed="11.34" duration="120.00" routeLength="1015.10" waitSteps="18" timeLoss="44.01" rerouteNo="0" devices="tripinfo_left_0" vType="typeWE" speedFactor="1.00" vaporized=""/>
    <tripinfo id="right_2" depart="3.00" departLane="51o_0" departPos="5.10" departSpeed="0.00" departDelay="0.00" arrival="120.00" arrivalLane="52i_0" arrivalPos="10.00" arrivalSpeed="11.64" duration="117.00" routeLength="1015.10" waitSteps="16" timeLoss="41.19" rerouteNo="0" devices="tripinfo_right_2" vType="typeWE" speedFactor="1.00" vaporized=""/>
    <tripinfo id="left_1" depart="5.00" departLane="52o_0" departPos="5.10" departSpeed="0.00" departDelay="3.00" arrival="122.00" arrivalLane="51i_0" arrivalPos="10.00" arrivalSpeed="11.15" duration="117.00" routeLength="1015.10" waitSteps="14" timeLoss="41.08" rerouteNo="0" devices="tripinfo_left_1" vType="typeWE" speedFactor="1.00" vaporized=""/>
    <tripinfo id="right_3" depart="8.00" departLane="51o_0" departPos="5.10" departSpeed="0.00" departDelay="4.00" arrival="123.00" arrivalLane="52i_0" arrivalPos="10.00" arrivalSpeed="11.47" duration="115.00" routeLength="1015.10" waitSteps="12" timeLoss="39.03" rerouteNo="0" devices="tripinfo_right_3" vType="typeWE" speedFactor="1.00" vaporized=""/>
    <tripinfo id="left_4" depart="10.00" departLane="52o_0" departPos="5.10" departSpeed="0.00" departDelay="6.00" arrival="125.00" arrivalLane="51i_0" arrivalPos="10.00" arrivalSpeed="11.46" duration="115.00" routeLength="1015.10" waitSteps="12" timeLoss="39.00" rerouteNo="0" devices="tripinfo_left_4" vType="typeWE" speedFactor="1.00" vaporized=""/>
    <tripinfo id="right_6" depart="13.00" departLane="51o_0" departPos="5.10" departSpeed="0.00" departDelay="4.00" arrival="125.00" arrivalLane="52i_0" arrivalPos="10.00" arrivalSpeed="11.65" duration="112.00" routeLength="1015.10" waitSteps="7" timeLoss="35.85" rerouteNo="0" devices="tripinfo_right_6" vType="typeWE" speedFactor="1.00" vaporized=""/>
    <tripinfo id="down_12" depart="29.00" departLane="54o_0" departPos="7.10" departSpeed="0.00" departDelay="0.00" arrival="136.00" arrivalLane="53i_0" arrivalPos="10.00" arrivalSpeed="11.53" duration="107.00" routeLength="1013.10" waitSteps="6" timeLoss="35.50" rerouteNo="0" devices="tripinfo_down_12" vType="typeNS" speedFactor="1.00" vaporized=""/>
    <tripinfo id="right_13" depart="30.00" departLane="51o_0" departPos="5.10" departSpeed="0.00" departDelay="0.00" arrival="151.00" arrivalLane="52i_0" arrivalPos="10.00" arrivalSpeed="11.74" duration="121.00" routeLength="1015.10" waitSteps="18" timeLoss="45.29" rerouteNo="0" devices="tripinfo_right_13" vType="typeWE" speedFactor="1.00" vaporized=""/>
    <tripinfo id="left_5" depart="15.00" departLane="52o_0" departPos="5.10" departSpeed="0.00" departDelay="9.00" arrival="153.00" arrivalLane="51i_0" arrivalPos="10.00" arrivalSpeed="11.48" duration="138.00" routeLength="1015.10" waitSteps="27" timeLoss="62.03" rerouteNo="0" devices="tripinfo_left_5" vType="typeWE" speedFactor="1.00" vaporized=""/>
    <tripinfo id="right_18" depart="42.00" departLane="51o_0" departPos="5.10" departSpeed="0.00" departDelay="0.00" arrival="154.00" arrivalLane="52i_0" arrivalPos="10.00" arrivalSpeed="11.40" duration="112.00" routeLength="1015.10" waitSteps="8" timeLoss="35.83" rerouteNo="0" devices="tripinfo_right_18" vType="typeWE" speedFactor="1.00" vaporized=""/>
    <tripinfo id="left_8" depart="20.00" departLane="52o_0" departPos="5.10" departSpeed="0.00" departDelay="5.00" arrival="155.00" arrivalLane="51i_0" arrivalPos="10.00" arrivalSpeed="11.50" duration="135.00" routeLength="1015.10" waitSteps="23" timeLoss="58.99" rerouteNo="0" devices="tripinfo_left_8" vType="typeWE" speedFactor="1.00" vaporized=""/>
    <tripinfo id="right_23" depart="55.00" departLane="51o_0" departPos="5.10" departSpeed="0.00" departDelay="0.00" arrival="156.00" arrivalLane="52i_0" arrivalPos="10.00" arrivalSpeed="11.50" duration="101.00" routeLength="1015.10" waitSteps="0" timeLoss="25.24" rerouteNo="0" devices="tripinfo_right_23" vType="typeWE" speedFactor="1.00" vaporized=""/>
    <tripinfo id="left_9" depart="25.00" departLane="52o_0" departPos="5.10" departSpeed="0.00" departDelay="6.00" arrival="157.00" arrivalLane="51i_0" arrivalPos="10.00" arrivalSpeed="11.80" duration="132.00" routeLength="1015.10" waitSteps="19" timeLoss="56.02" rerouteNo="0" devices="tripinfo_left_9" vType="typeWE" speedFactor="1.00" vaporized=""/>
    <tripinfo id="right_26" depart="61.00" departLane="51o_0" departPos="5.10" departSpeed="0.00" departDelay="0.00" arrival="184.00" arrivalLane="52i_0" arrivalPos="10.00" arrivalSpeed="11.38" duration="123.00" routeLength="1015.10" waitSteps="20" timeLoss="46.95" rerouteNo="0" devices="tripinfo_right_26" vType="typeWE" speedFactor="1.00" vaporized=""/>
    <tripinfo id="left_10" depart="30.00" departLane="52o_0" departPos="5.10" departSpeed="0.00" departDelay="8.00" arrival="185.00" arrivalLane="51i_0" arrivalPos="10.00" arrivalSpeed="11.65" duration="155.00" routeLength="1015.10" waitSteps="36" timeLoss="78.40" rerouteNo="0" devices="tripinfo_left_10" vType="typeWE" speedFactor="1.00" vaporized=""/>
    <tripinfo id="left_11" depart="35.00" departLane="52o_0" departPos="5.10" departSpeed="0.00" departDelay="6.00" arrival="187.00" arrivalLane="51i_0" arrivalPos="10.00" arrivalSpeed="11.67" duration="152.00" routeLength="1015.10" waitSteps="34" timeLoss="75.60" rerouteNo="0" devices="tripinfo_left_11" vType="typeWE" speedFactor="1.00" vaporized=""/>
    <tripinfo id="right_27" depart="69.00" departLane="51o_0" departPos="5.10" departSpeed="0.00" departDelay="0.00" arrival="187.00" arrivalLane="52i_0" arrivalPos="10.00" arrivalSpeed="11.30" duration="118.00" routeLength="1015.10" waitSteps="14" timeLoss="41.63" rerouteNo="0" devices="tripinfo_right_27" vType="typeWE" speedFactor="1.00" vaporized=""/>
    <tripinfo id="left_14" depart="40.00" departLane="52o_0" departPos="5.10" departSpeed="0.00" departDelay="9.00" arrival="189.00" arrivalLane="51i_0" arrivalPos="10.00" arrivalSpeed="11.35" duration="149.00" routeLength="1015.10" waitSteps="31" timeLoss="72.69" rerouteNo="0" devices="tripinfo_left_14" vType="typeWE" speedFactor="1.00" vaporized=""/>
    <tripinfo id="right_28" depart="76.00" departLane="51o_0" departPos="5.10" departSpeed="0.00" departDelay="0.00" arrival="189.00" arrivalLane="52i_0" arrivalPos="10.00" arrivalSpeed="11.49" duration="113.00" routeLength="1015.10" waitSteps="10" timeLoss="36.67" rerouteNo="0" devices="tripinfo_right_28" vType="typeWE" speedFactor="1.00" vaporized=""/>
    <tripinfo id="down_33" depart="89.00" departLane="54o_0" departPos="7.10" departSpeed="0.00" departDelay="0.00" arrival="200.00" arrivalLane="53i_0" arrivalPos="10.00" arrivalSpeed="10.73" duration="111.00" routeLength="1013.10" waitSteps="12" timeLoss="39.53" rerouteNo="0" devices="tripinfo_down_33" vType="typeNS" speedFactor="1.00" vaporized=""/>
    <tripinfo id="down_36" depart="96.00" departLane="54o_0" departPos="7.10" departSpeed="0.00" departDelay="0.00" arrival="203.00" arrivalLane="53i_0" arrivalPos="10.00" arrivalSpeed="11.71" duration="107.00" routeLength="1013.10" waitSteps="6" timeLoss="35.57" rerouteNo="0" devices="tripinfo_down_36" vType="typeNS" speedFactor="1.00" vaporized=""/>
    <tripinfo id="left_15" depart="46.00" departLane="52o_0" departPos="5.10" departSpeed="0.00" departDelay="13.00" arrival="216.00" arrivalLane="51i_0" arrivalPos="10.00" arrivalSpeed="11.78" duration="170.00" routeLength="1015.10" waitSteps="45" timeLoss="94.23" rerouteNo="0" devices="tripinfo_left_15" vType="typeWE" speedFactor="1.00" vaporized=""/>
    <tripinfo id="right_29" depart="81.00" departLane="51o_0" departPos="5.10" departSpeed="0.00" departDelay="4.00" arrival="216.00" arrivalLane="52i_0" arrivalPos="10.00" arrivalSpeed="11.73" duration="135.00" routeLength="1015.10" waitSteps="24" timeLoss="58.96" rerouteNo="0" devices="tripinfo_right_29" vType="typeWE" speedFactor="1.00" vaporized=""/>
    <tripinfo id="right_31" depart="86.00" departLane="51o_0" departPos="5.10" departSpeed="0.00" departDelay="2.00" arrival="218.00" arrivalLane="52i_0" arrivalPos="10.00" arrivalSpeed="11.68" duration="132.00" routeLength="1015.10" waitSteps="18" timeLoss="55.79" rerouteNo="0" devices="tripinfo_right_31" vType="typeWE" speedFactor="1.00" vaporized=""/>
    <tripinfo id="left_16" depart="51.00" departLane="52o_0" departPos="5.10" departSpeed="0.00" departDelay="16.00" arrival="219.00" arrivalLane="51i_0" arrivalPos="10.00" arrivalSpeed="11.65" duration="168.00" routeLength="1015.10" waitSteps="41" timeLoss="91.41" rerouteNo="0" devices="tripinfo_left_16" vType="typeWE" speedFactor="1.00" vaporized=""/>
    <tripinfo id="right_35" depart="92.00" departLane="51o_0" departPos="5.10" departSpeed="0.00" departDelay="0.00" arrival="220.00" arrivalLane="52i_0" arrivalPos="10.00" arrivalSpeed="11.16" duration="128.00" routeLength="1015.10" waitSteps="16" timeLoss="52.15" rerouteNo="0" devices="tripinfo_right_35" vType="typeWE" speedFactor="1.00" vaporized=""/>
    <tripinfo id="down_48" depart="122.00" departLane="54o_0" departPos="7.10" departSpeed="0.00" departDelay="0.00" arrival="233.00" arrivalLane="53i_0" arrivalPos="10.00" arrivalSpeed="11.63" duration="111.00" routeLength="1013.10" waitSteps="9" timeLoss="39.17" rerouteNo="0" devices="tripinfo_down_48" vType="typeNS" speedFactor="1.00" vaporized=""/>
    <tripinfo id="right_37" depart="99.00" departLane="51o_0" departPos="5.10" departSpeed="0.00" departDelay="0.00" arrival="248.00" arrivalLane="52i_0" arrivalPos="10.00" arrivalSpeed="11.47" duration="149.00" routeLength="1015.10" waitSteps="35" timeLoss="72.70" rerouteNo="0" devices="tripinfo_right_37" vType="typeWE" speedFactor="1.00" vaporized=""/>
    <tripinfo id="left_17" depart="56.00" departLane="52o_0" departPos="5.10" departSpeed="0.00" departDelay="15.00" arrival="249.00" arrivalLane="51i_0" arrivalPos="10.00" arrivalSpeed="11.19" duration="193.00" routeLength="1015.10" waitSteps="60" timeLoss="116.54" rerouteNo="0" devices="tripinfo_left_17" vType="typeWE" speedFactor="1.00" vaporized=""/>
    <tripinfo id="right_41" depart="106.00" departLane="51o_0" departPos="5.10" departSpeed="0.00" departDelay="0.00" arrival="250.00" arrivalLane="52i_0" arrivalPos="10.00" arrivalSpeed="10.77" duration="144.00" routeLength="1015.10" waitSteps="34" timeLoss="67.98" rerouteNo="0" devices="tripinfo_right_41" vType="typeWE" speedFactor="1.00" vaporized=""/>
    <tripinfo id="left_19" depart="61.00" departLane="52o_0" departPos="5.10" departSpeed="0.00" departDelay="16.00" arrival="250.00" arrivalLane="51i_0" arrivalPos="10.00" arrivalSpeed="11.26" duration="189.00" routeLength="1015.10" waitSteps="55" timeLoss="113.25" rerouteNo="0" devices="tripinfo_left_19" vType="typeWE" speedFactor="1.00" vaporized=""/>
    <tripinfo id="left_20" depart="66.00" departLane="52o_0" departPos="5.10" departSpeed="0.00" departDelay="20.00" arrival="253.00" arrivalLane="51i_0" arrivalPos="10.00" arrivalSpeed="11.68" duration="187.00" routeLength="1015.10" waitSteps="49" timeLoss="110.39" rerouteNo="0" devices="tripinfo_left_20" vType="typeWE" speedFactor="1.00" vaporized=""/>
    <tripinfo id="right_42" depart="111.00" departLane="51o_0" departPos="5.10" departSpeed="0.00" departDelay="3.00" arrival="253.00" arrivalLane="52i_0" arrivalPos="10.00" arrivalSpeed="11.55" duration="142.00" routeLength="1015.10" waitSteps="28" timeLoss="65.89" rerouteNo="0" devices="tripinfo_right_42" vType="typeWE" speedFactor="1.00" vaporized=""/>
    <tripinfo id="down_69" depart="172.00" departLane="54o_0" departPos="7.10" departSpeed="0.00" departDelay="0.00" arrival="261.00" arrivalLane="53i_0" arrivalPos="10.00" arrivalSpeed="11.49" duration="89.00" routeLength="1013.10" waitSteps="0" timeLoss="17.42" rerouteNo="0" devices="tripinfo_down_69" vType="typeNS" speedFactor="1.00" vaporized=""/>
    <tripinfo id="left_21" depart="72.00" departLane="52o_0" departPos="5.10" departSpeed="0.00" departDelay="21.00" arrival="280.00" arrivalLane="51i_0" arrivalPos="10.00" arrivalSpeed="11.42" duration="208.00" routeLength="1015.10" waitSteps="67" timeLoss="131.69" rerouteNo="0" devices="tripinfo_left_21" vType="typeWE" speedFactor="1.00" vaporized=""/>
    <tripinfo id="right_43" depart="116.00" departLane="51o_0" departPos="5.10" departSpeed="0.00" departDelay="5.00" arrival="280.00" arrivalLane="52i_0" arrivalPos="10.00" arrivalSpeed="11.76" duration="164.00" routeLength="1015.10" waitSteps="44" timeLoss="87.92" rerouteNo="0" devices="tripinfo_right_43" vType="typeWE" speedFactor="1.00" vaporized=""/>
    <tripinfo id="left_22" depart="77.00" departLane="52o_0" departPos="5.10" departSpeed="0.00" departDelay="24.00" arrival="282.00" arrivalLane="51i_0" arrivalPos="10.00" arrivalSpeed="11.21" duration="205.00" routeLength="1015.10" waitSteps="66" timeLoss="128.90" rerouteNo="0" devices="tripinfo_left_22" vType="typeWE" speedFactor="1.00" vaporized=""/>
    <tripinfo id="right_44" depart="122.00" departLane="51o_0" departPos="5.10" departSpeed="0.00" departDelay="8.00" arrival="282.00" arrivalLane="52i_0" arrivalPos="10.00" arrivalSpeed="11.53" duration="160.00" routeLength="1015.10" waitSteps="36" timeLoss="84.10" rerouteNo="0" devices="tripinfo_right_44" vType="typeWE" speedFactor="1.00" vaporized=""/>
    <tripinfo id="right_49" depart="127.00" departLane="51o_0" departPos="5.10" departSpeed="0.00" departDelay="2.00" arrival="284.00" arrivalLane="52i_0" arrivalPos="10.00" arrivalSpeed="10.91" duration="157.00" routeLength="1015.10" waitSteps="33" timeLoss="80.96" rerouteNo="0" devices="tripinfo_right_49" vType="typeWE" speedFactor="1.00" vaporized=""/>
    <tripinfo id="left_24" depart="82.00" departLane="52o_0" departPos="5.10" departSpeed="0.00" departDelay="26.00" arrival="284.00" arrivalLane="51i_0" arrivalPos="10.00" arrivalSpeed="11.33" duration="202.00" routeLength="1015.10" waitSteps="63" timeLoss="125.89" rerouteNo="0" devices="tripinfo_left_24" vType="typeWE" speedFactor="1.00" vaporized=""/>
    <tripinfo id="left_25" depart="87.00" departLane="52o_0" departPos="5.10" departSpeed="0.00" departDelay="29.00" arrival="312.00" arrivalLane="51i_0" arrivalPos="10.00" arrivalSpeed="11.47" duration="225.00" routeLength="1015.10" waitSteps="81" timeLoss="148.77" rerouteNo="0" devices="tripinfo_left_25" vType="typeWE" speedFactor="1.00" vaporized=""/>
    <tripinfo id="right_51" depart="135.00" departLane="51o_0" departPos="5.10" departSpeed="0.00" departDelay="0.00" arrival="312.00" arrivalLane="52i_0" arrivalPos="10.00" arrivalSpeed="11.58" duration="177.00" routeLength="1015.10" waitSteps="50" timeLoss="101.24" rerouteNo="0" devices="tripinfo_right_51" vType="typeWE" speedFactor="1.00" vaporized=""/>
    <tripinfo id="left_30" depart="92.00" departLane="52o_0" departPos="5.10" departSpeed="0.00" departDelay="14.00" arrival="314.00" arrivalLane="51i_0" arrivalPos="10.00" arrivalSpeed="11.45" duration="222.00" routeLength="1015.10" waitSteps="73" timeLoss="146.14" rerouteNo="0" devices="tripinfo_left_30" vType="typeWE" speedFactor="1.00" vaporized=""/>
    <tripinfo id="right_53" depart="140.00" departLane="51o_0" departPos="5.10" departSpeed="0.00" departDelay="2.00" arrival="315.00" arrivalLane="52i_0" arrivalPos="10.00" arrivalSpeed="11.42" duration="175.00" routeLength="1015.10" waitSteps="49" timeLoss="98.36" rerouteNo="0" devices="tripinfo_right_53" vType="typeWE" speedFactor="1.00" vaporized=""/>
    <tripinfo id="left_32" depart="97.00" departLane="52o_0" departPos="5.10" departSpeed="0.00" departDelay="12.00" arrival="316.00" arrivalLane="51i_0" arrivalPos="10.00" arrivalSpeed="11.63" duration="219.00" routeLength="1015.10" waitSteps="70" timeLoss="142.99" rerouteNo="0" devices="tripinfo_left_32" vType="typeWE" speedFactor="1.00" vaporized=""/>
    <tripinfo id="right_57" depart="145.00" departLane="51o_0" departPos="5.10" departSpeed="0.00" departDelay="1.00" arrival="317.00" arrivalLane="52i_0" arrivalPos="10.00" arrivalSpeed="11.40" duration="172.00" routeLength="1015.10" waitSteps="47" timeLoss="95.40" rerouteNo="0" devices="tripinfo_right_57" vType="typeWE" speedFactor="1.00" vaporized=""/>
    <tripinfo id="down_97" depart="238.00" departLane="54o_0" departPos="7.10" departSpeed="0.00" departDelay="0.00" arrival="328.00" arrivalLane="53i_0" arrivalPos="10.00" arrivalSpeed="11.51" duration="90.00" routeLength="1013.10" waitSteps="0" timeLoss="18.22" rerouteNo="0" devices="tripinfo_down_97" vType="typeNS" speedFactor="1.00" vaporized=""/>
    <tripinfo id="right_58" depart="150.00" departLane="51o_0" departPos="5.10" departSpeed="0.00" departDelay="5.00" arrival="344.00" arrivalLane="52i_0" arrivalPos="10.00" arrivalSpeed="11.65" duration="194.00" routeLength="1015.10" waitSteps="63" timeLoss="118.18" rerouteNo="0" devices="tripinfo_right_58" vType="typeWE" speedFactor="1.00" vaporized=""/>
    <tripinfo id="left_34" depart="102.00" departLane="52o_0" departPos="5.10" departSpeed="0.00" departDelay="11.00" arrival="345.00" arrivalLane="51i_0" arrivalPos="10.00" arrivalSpeed="11.24" duration="243.00" routeLength="1015.10" waitSteps="86" timeLoss="166.50" rerouteNo="0" devices="tripinfo_left_34" vType="typeWE" speedFactor="1.00" vaporized=""/>
    <tripinfo id="right_60" depart="155.00" departLane="51o_0" departPos="5.10" departSpeed="0.00" departDelay="0.00" arrival="346.00" arrivalLane="52i_0" arrivalPos="10.00" arrivalSpeed="11.48" duration="191.00" routeLength="1015.10" waitSteps="56" timeLoss="115.13" rerouteNo="0" devices="tripinfo_right_60" vType="typeWE" speedFactor="1.00" vaporized=""/>
    <tripinfo id="left_38" depart="107.00" departLane="52o_0" departPos="5.10" departSpeed="0.00" departDelay="8.00" arrival="347.00" arrivalLane="51i_0" arrivalPos="10.00" arrivalSpeed="11.71" duration="240.00" routeLength="1015.10" waitSteps="78" timeLoss="163.49" rerouteNo="0" devices="tripinfo_left_38" vType="typeWE" speedFactor="1.00" vaporized=""/>
    <tripinfo id="right_65" depart="167.00" departLane="51o_0" departPos="5.10" departSpeed="0.00" departDelay="0.00" arrival="348.00" arrivalLane="52i_0" arrivalPos="10.00" arrivalSpeed="11.47" duration="181.00" routeLength="1015.10" waitSteps="50" timeLoss="104.97" rerouteNo="0" devices="tripinfo_right_65" vType="typeWE" speedFactor="1.00" vaporized=""/>
    <tripinfo id="left_39" depart="112.00" departLane="52o_0" departPos="5.10" departSpeed="0.00" departDelay="11.00" arrival="349.00" arrivalLane="51i_0" arrivalPos="10.00" arrivalSpeed="11.78" duration="237.00" routeLength="1015.10" waitSteps="79" timeLoss="160.78" rerouteNo="0" devices="tripinfo_left_39" vType="typeWE" speedFactor="1.00" vaporized=""/>
    <tripinfo id="down_99" depart="244.00" departLane="54o_0" departPos="7.10" departSpeed="0.00" departDelay="2.00" arrival="360.00" arrivalLane="53i_0" arrivalPos="10.00" arrivalSpeed="11.47" duration="116.00" routeLength="1013.10" waitSteps="17" timeLoss="44.20" rerouteNo="0" devices="tripinfo_down_99" vType="typeNS" speedFactor="1.00" vaporized=""/>
    <tripinfo id="left_40" depart="117.00" departLane="52o_0" departPos="5.10" departSpeed="0.00" departDelay="13.00" arrival="376.00" arrivalLane="51i_0" arrivalPos="10.00" arrivalSpeed="11.73" duration="259.00" routeLength="1015.10" waitSteps="94" timeLoss="183.08" rerouteNo="0" devices="tripinfo_left_40" vType="typeWE" speedFactor="1.00" vaporized=""/>
    <tripinfo id="right_66" depart="172.00" departLane="51o_0" departPos="5.10" departSpeed="0.00" departDelay="4.00" arrival="377.00" arrivalLane="52i_0" arrivalPos="10.00" arrivalSpeed="11.37" duration="205.00" routeLength="1015.10" waitSteps="69" timeLoss="128.93" rerouteNo="0" devices="tripinfo_right_66" vType="typeWE" speedFactor="1.00" vaporized=""/>
    <tripinfo id="left_45" depart="123.00" departLane="52o_0" departPos="5.10" departSpeed="0.00" departDelay="9.00" arrival="378.00" arrivalLane="51i_0" arrivalPos="10.00" arrivalSpeed="11.50" duration="255.00" routeLength="1015.10" waitSteps="90" timeLoss="179.15" rerouteNo="0" devices="tripinfo_left_45" vType="typeWE" speedFactor="1.00" vaporized=""/>
    <tripinfo id="right_70" depart="177.00" departLane="51o_0" departPos="5.10" departSpeed="0.00" departDelay="1.00" arrival="379.00" arrivalLane="52i_0" arrivalPos="10.00" arrivalSpeed="11.38" duration="202.00" routeLength="1015.10" waitSteps="64" timeLoss="125.99" rerouteNo="0" devices="tripinfo_right_70" vType="typeWE" speedFactor="1.00" vaporized=""/>
    <tripinfo id="left_46" depart="128.00" departLane="52o_0" departPos="5.10" departSpeed="0.00" departDelay="10.00" arrival="381.00" arrivalLane="51i_0" arrivalPos="10.00" arrivalSpeed="11.30" duration="253.00" routeLength="1015.10" waitSteps="86" timeLoss="176.72" rerouteNo="0" devices="tripinfo_left_46" vType="typeWE" speedFactor="1.00" vaporized=""/>
    <tripinfo id="right_72" depart="182.00" departLane="51o_0" departPos="5.10" departSpeed="0.00" departDelay="1.00" arrival="381.00" arrivalLane="52i_0" arrivalPos="10.00" arrivalSpeed="11.40" duration="199.00" routeLength="1015.10" waitSteps="60" timeLoss="122.84" rerouteNo="0" devices="tripinfo_right_72" vType="typeWE" speedFactor="1.00" vaporized=""/>
    <tripinfo id="down_108" depart="283.00" departLane="54o_0" departPos="7.10" departSpeed="0.00" departDelay="0.00" arrival="392.00" arrivalLane="53i_0" arrivalPos="10.00" arrivalSpeed="11.34" duration="109.00" routeLength="1013.10" waitSteps="9" timeLoss="37.46" rerouteNo="0" devices="tripinfo_down_108" vType="typeNS" speedFactor="1.00" vaporized=""/>
    <tripinfo id="down_117" depart="302.00" departLane="54o_0" departPos="7.10" departSpeed="0.00" departDelay="0.00" arrival="394.00" arrivalLane="53i_0" arrivalPos="10.00" arrivalSpeed="11.76" duration="92.00" routeLength="1013.10" waitSteps="0" timeLoss="20.42" rerouteNo="0" devices="tripinfo_down_117" vType="typeNS" speedFactor="1.00" vaporized=""/>
    <tripinfo id="right_73" depart="189.00" departLane="51o_0" departPos="5.10" departSpeed="0.00" departDelay="6.00" arrival="408.00" arrivalLane="52i_0" arrivalPos="10.00" arrivalSpeed="11.48" duration="219.00" routeLength="1015.10" waitSteps="73" timeLoss="143.09" rerouteNo="0" devices="tripinfo_right_73" vType="typeWE" speedFactor="1.00" vaporized=""/>
    <tripinfo id="left_47" depart="133.00" departLane="52o_0" departPos="5.10" departSpeed="0.00" departDelay="14.00" arrival="409.00" arrivalLane="51i_0" arrivalPos="10.00" arrivalSpeed="11.53" duration="276.00" routeLength="1015.10" waitSteps="101" timeLoss="199.69" rerouteNo="0" devices="tripinfo_left_47" vType="typeWE" speedFactor="1.00" vaporized=""/>
    <tripinfo id="left_50" depart="138.00" departLane="52o_0" departPos="5.10" departSpeed="0.00" departDelay="7.00" arrival="411.00" arrivalLane="51i_0" arrivalPos="10.00" arrivalSpeed="11.56" duration="273.00" routeLength="1015.10" waitSteps="95" timeLoss="196.53" rerouteNo="0" devices="tripinfo_left_50" vType="typeWE" speedFactor="1.00" vaporized=""/>
    <tripinfo id="right_74" depart="194.00" departLane="51o_0" departPos="5.10" departSpeed="0.00" departDelay="10.00" arrival="411.00" arrivalLane="52i_0" arrivalPos="10.00" arrivalSpeed="11.35" duration="217.00" routeLength="1015.10" waitSteps="69" timeLoss="140.49" rerouteNo="0" devices="tripinfo_right_74" vType="typeWE" speedFactor="1.00" vaporized=""/>
    <tripinfo id="left_52" depart="143.00" departLane="52o_0" departPos="5.10" departSpeed="0.00" departDelay="8.00" arrival="413.00" arrivalLane="51i_0" arrivalPos="10.00" arrivalSpeed="11.50" duration="270.00" routeLength="1015.10" waitSteps="89" timeLoss="193.84" rerouteNo="0" devices="tripinfo_left_52" vType="typeWE" speedFactor="1.00" vaporized=""/>
    <tripinfo id="right_78" depart="199.00" departLane="51o_0" departPos="5.10" departSpeed="0.00" departDelay="2.00" arrival="413.00" arrivalLane="52i_0" arrivalPos="10.00" arrivalSpeed="11.71" duration="214.00" routeLength="1015.10" waitSteps="65" timeLoss="137.41" rerouteNo="0" devices="tripinfo_right_78" vType="typeWE" speedFactor="1.00" vaporized=""/>
    <tripinfo id="down_120" depart="318.00" departLane="54o_0" departPos="7.10" departSpeed="0.00" departDelay="0.00" arrival="424.00" arrivalLane="53i_0" arrivalPos="10.00" arrivalSpeed="11.63" duration="106.00" routeLength="1013.10" waitSteps="5" timeLoss="34.14" rerouteNo="0" devices="tripinfo_down_120" vType="typeNS" speedFactor="1.00" vaporized=""/>
    <tripinfo id="down_126" depart="331.00" departLane="54o_0" departPos="7.10" departSpeed="0.00" departDelay="0.00" arrival="426.00" arrivalLane="53i_0" arrivalPos="10.00" arrivalSpeed="11.59" duration="95.00" routeLength="1013.10" waitSteps="0" timeLoss="23.19" rerouteNo="0" devices="tripinfo_down_126" vType="typeNS" speedFactor="1.00" vaporized=""/>
    <tripinfo id="down_129" depart="337.00" departLane="54o_0" departPos="7.10" departSpeed="0.00" departDelay="0.00" arrival="428.00" arrivalLane="53i_0" arrivalPos="10.00" arrivalSpeed="11.27" duration="91.00" routeLength="1013.10" waitSteps="0" timeLoss="19.17" rerouteNo="0" devices="tripinfo_down_129" vType="typeNS" speedFactor="1.00" vaporized=""/>
    <tripinfo id="left_54" depart="149.00" departLane="52o_0" departPos="5.10" departSpeed="0.00" departDelay="11.00" arrival="440.00" arrivalLane="51i_0" arrivalPos="10.00" arrivalSpeed="11.52" duration="291.00" routeLength="1015.10" waitSteps="105" timeLoss="215.08" rerouteNo="0" devices="tripinfo_left_54" vType="typeWE" speedFactor="1.00" vaporized=""/>
    <tripinfo id="right_80" depart="204.00" departLane="51o_0" departPos="5.10" departSpeed="0.00" departDelay="4.00" arrival="440.00" arrivalLane="52i_0" arrivalPos="10.00" arrivalSpeed="11.51" duration="236.00" routeLength="1015.10" waitSteps="78" timeLoss="159.67" rerouteNo="0" devices="tripinfo_right_80" vType="typeWE" speedFactor="1.00" vaporized=""/>
    <tripinfo id="left_55" depart="154.00" departLane="52o_0" departPos="5.10" departSpeed="0.00" departDelay="12.00" arrival="442.00" arrivalLane="51i_0" arrivalPos="10.00" arrivalSpeed="11.35" duration="288.00" routeLength="1015.10" waitSteps="105" timeLoss="211.98" rerouteNo="0" devices="tripinfo_left_55" vType="typeWE" speedFactor="1.00" vaporized=""/>
    <tripinfo id="right_81" depart="209.00" departLane="51o_0" departPos="5.10" departSpeed="0.00" departDelay="2.00" arrival="442.00" arrivalLane="52i_0" arrivalPos="10.00" arrivalSpeed="11.44" duration="233.00" routeLength="1015.10" waitSteps="79" timeLoss="157.00" rerouteNo="0" devices="tripinfo_right_81" vType="typeWE" speedFactor="1.00" vaporized=""/>
    <tripinfo id="left_56" depart="159.00" departLane="52o_0" departPos="5.10" departSpeed="0.00" departDelay="16.00" arrival="445.00" arrivalLane="51i_0" arrivalPos="10.00" arrivalSpeed="11.46" duration="286.00" routeLength="1015.10" waitSteps="101" timeLoss="209.49" rerouteNo="0" devices="tripinfo_left_56" vType="typeWE" speedFactor="1.00" vaporized=""/>
    <tripinfo id="right_83" depart="214.00" departLane="51o_0" departPos="5.10" departSpeed="0.00" departDelay="3.00" arrival="445.00" arrivalLane="52i_0" arrivalPos="10.00" arrivalSpeed="11.33" duration="231.00" routeLength="1015.10" waitSteps="77" timeLoss="154.48" rerouteNo="0" devices="tripinfo_right_83" vType="typeWE" speedFactor="1.00" vaporized=""/>
    <tripinfo id="down_135" depart="344.00" departLane="54o_0" departPos="7.10" departSpeed="0.00" departDelay="0.00" arrival="457.00" arrivalLane="53i_0" arrivalPos="10.00" arrivalSpeed="11.27" duration="113.00" routeLength="1013.10" waitSteps="11" timeLoss="41.30" rerouteNo="0" devices="tripinfo_down_135" vType="typeNS" speedFactor="1.00" vaporized=""/>
    <tripinfo id="down_138" depart="350.00" departLane="54o_0" departPos="7.10" departSpeed="0.00" departDelay="1.00" arrival="459.00" arrivalLane="53i_0" arrivalPos="10.00" arrivalSpeed="11.50" duration="109.00" routeLength="1013.10" waitSteps="7" timeLoss="37.34" rerouteNo="0" devices="tripinfo_down_138" vType="typeNS" speedFactor="1.00" vaporized=""/>
    <tripinfo id="left_59" depart="164.00" departLane="52o_0" departPos="5.10" departSpeed="0.00" departDelay="11.00" arrival="472.00" arrivalLane="51i_0" arrivalPos="10.00" arrivalSpeed="11.47" duration="308.00" routeLength="1015.10" waitSteps="116" timeLoss="231.76" rerouteNo="0" devices="tripinfo_left_59" vType="typeWE" speedFactor="1.00" vaporized=""/>