<?xml version="1.0" encoding="UTF-8"?>

<!-- generated on Sun Mar  4 16:30:39 2018 by SUMO Version 0.32.0
<?xml version="1.0" encoding="UTF-8"?>

<configuration xmlns:xsi="http://www.w3.org/2001/XMLSchema-instance" xsi:noNamespaceSchemaLocation="http://sumo.dlr.de/xsd/sumoConfiguration.xsd">

    <input>
        <net-file value="data/cross.net.xml"/>
        <route-files value="data/cross.rou.xml"/>
        <additional-files value="data/cross.det.xml,data/cross.det2.xml"/>
    </input>

    <output>
        <tripinfo-output value="qlepisode2_tripinfo.xml"/>
    </output>

    <time>
        <begin value="0"/>
    </time>

    <report>
        <verbose value="true"/>
        <error-log value="errors"/>
        <no-step-log value="true"/>
    </report>

    <traci_server>
        <remote-port value="60730"/>
    </traci_server>

</configuration>
-->

<tripinfos xmlns:xsi="http://www.w3.org/2001/XMLSchema-instance" xsi:noNamespaceSchemaLocation="http://sumo.dlr.de/xsd/tripinfo_file.xsd">
    <tripinfo id="left_0" depart="0.00" departLane="52o_0" departPos="5.10" departSpeed="0.00" departDelay="0.00" arrival="92.00" arrivalLane="51i_0" arrivalPos="10.00" arrivalSpeed="11.76" duration="92.00" routeLength="1015.10" waitSteps="0" timeLoss="15.32" rerouteNo="0" devices="tripinfo_left_0" vType="typeWE" speedFactor="1.00" vaporized=""/>
    <tripinfo id="right_2" depart="3.00" departLane="51o_0" departPos="5.10" departSpeed="0.00" departDelay="0.00" arrival="94.00" arrivalLane="52i_0" arrivalPos="10.00" arrivalSpeed="11.48" duration="91.00" routeLength="1015.10" waitSteps="0" timeLoss="14.26" rerouteNo="0" devices="tripinfo_right_2" vType="typeWE" speedFactor="1.00" vaporized=""/>
    <tripinfo id="left_1" depart="5.00" departLane="52o_0" departPos="5.10" departSpeed="0.00" departDelay="3.00" arrival="96.00" arrivalLane="51i_0" arrivalPos="10.00" arrivalSpeed="11.25" duration="91.00" routeLength="1015.10" waitSteps="0" timeLoss="15.02" rerouteNo="0" devices="tripinfo_left_1" vType="typeWE" speedFactor="1.00" vaporized=""/>
    <tripinfo id="right_3" depart="8.00" departLane="51o_0" departPos="5.10" departSpeed="0.00" departDelay="4.00" arrival="100.00" arrivalLane="52i_0" arrivalPos="10.00" arrivalSpeed="11.56" duration="92.00" routeLength="1015.10" waitSteps="0" timeLoss="15.41" rerouteNo="0" devices="tripinfo_right_3" vType="typeWE" speedFactor="1.00" vaporized=""/>
    <tripinfo id="left_4" depart="10.00" departLane="52o_0" departPos="5.10" departSpeed="0.00" departDelay="6.00" arrival="101.00" arrivalLane="51i_0" arrivalPos="10.00" arrivalSpeed="11.45" duration="91.00" routeLength="1015.10" waitSteps="0" timeLoss="14.78" rerouteNo="0" devices="tripinfo_left_4" vType="typeWE" speedFactor="1.00" vaporized=""/>
    <tripinfo id="right_6" depart="13.00" departLane="51o_0" departPos="5.10" departSpeed="0.00" departDelay="4.00" arrival="104.00" arrivalLane="52i_0" arrivalPos="10.00" arrivalSpeed="10.88" duration="91.00" routeLength="1015.10" waitSteps="0" timeLoss="14.81" rerouteNo="0" devices="tripinfo_right_6" vType="typeWE" speedFactor="1.00" vaporized=""/>
    <tripinfo id="left_5" depart="15.00" departLane="52o_0" departPos="5.10" departSpeed="0.00" departDelay="9.00" arrival="106.00" arrivalLane="51i_0" arrivalPos="10.00" arrivalSpeed="11.47" duration="91.00" routeLength="1015.10" waitSteps="0" timeLoss="14.41" rerouteNo="0" devices="tripinfo_left_5" vType="typeWE" speedFactor="1.00" vaporized=""/>
    <tripinfo id="down_7" depart="13.00" departLane="54o_0" departPos="7.10" departSpeed="0.00" departDelay="0.00" arrival="123.00" arrivalLane="53i_0" arrivalPos="10.00" arrivalSpeed="11.68" duration="110.00" routeLength="1013.10" waitSteps="9" timeLoss="38.15" rerouteNo="0" devices="tripinfo_down_7" vType="typeNS" speedFactor="1.00" vaporized=""/>
    <tripinfo id="down_12" depart="29.00" departLane="54o_0" departPos="7.10" departSpeed="0.00" departDelay="0.00" arrival="125.00" arrivalLane="53i_0" arrivalPos="10.00" arrivalSpeed="11.55" duration="96.00" routeLength="1013.10" waitSteps="0" timeLoss="24.32" rerouteNo="0" devices="tripinfo_down_12" vType="typeNS" speedFactor="1.00" vaporized=""/>
    <tripinfo id="left_8" depart="20.00" departLane="52o_0" departPos="5.10" departSpeed="0.00" departDelay="5.00" arrival="165.00" arrivalLane="51i_0" arrivalPos="10.00" arrivalSpeed="11.28" duration="145.00" routeLength="1015.10" waitSteps="42" timeLoss="68.72" rerouteNo="0" devices="tripinfo_left_8" vType="typeWE" speedFactor="1.00" vaporized=""/>
    <tripinfo id="right_13" depart="30.00" departLane="51o_0" departPos="5.10" departSpeed="0.00" departDelay="0.00" arrival="165.00" arrivalLane="52i_0" arrivalPos="10.00" arrivalSpeed="11.47" duration="135.00" routeLength="1015.10" waitSteps="32" timeLoss="58.55" rerouteNo="0" devices="tripinfo_right_13" vType="typeWE" speedFactor="1.00" vaporized=""/>
    <tripinfo id="left_9" depart="25.00" departLane="52o_0" departPos="5.10" departSpeed="0.00" departDelay="6.00" arrival="167.00" arrivalLane="51i_0" arrivalPos="10.00" arrivalSpeed="11.72" duration="142.00" routeLength="1015.10" waitSteps="37" timeLoss="65.46" rerouteNo="0" devices="tripinfo_left_9" vType="typeWE" speedFactor="1.00" vaporized=""/>
    <tripinfo id="right_18" depart="42.00" departLane="51o_0" departPos="5.10" departSpeed="0.00" departDelay="0.00" arrival="167.00" arrivalLane="52i_0" arrivalPos="10.00" arrivalSpeed="11.59" duration="125.00" routeLength="1015.10" waitSteps="21" timeLoss="48.70" rerouteNo="0" devices="tripinfo_right_18" vType="typeWE" speedFactor="1.00" vaporized=""/>
    <tripinfo id="left_10" depart="30.00" departLane="52o_0" departPos="5.10" departSpeed="0.00" departDelay="8.00" arrival="169.00" arrivalLane="51i_0" arrivalPos="10.00" arrivalSpeed="11.52" duration="139.00" routeLength="1015.10" waitSteps="35" timeLoss="63.01" rerouteNo="0" devices="tripinfo_left_10" vType="typeWE" speedFactor="1.00" vaporized=""/>
    <tripinfo id="right_23" depart="55.00" departLane="51o_0" departPos="5.10" departSpeed="0.00" departDelay="0.00" arrival="169.00" arrivalLane="52i_0" arrivalPos="10.00" arrivalSpeed="11.25" duration="114.00" routeLength="1015.10" waitSteps="10" timeLoss="37.52" rerouteNo="0" devices="tripinfo_right_23" vType="typeWE" speedFactor="1.00" vaporized=""/>
    <tripinfo id="down_33" depart="89.00" departLane="54o_0" departPos="7.10" departSpeed="0.00" departDelay="0.00" arrival="178.00" arrivalLane="53i_0" arrivalPos="10.00" arrivalSpeed="11.52" duration="89.00" routeLength="1013.10" waitSteps="0" timeLoss="17.44" rerouteNo="0" devices="tripinfo_down_33" vType="typeNS" speedFactor="1.00" vaporized=""/>
    <tripinfo id="down_36" depart="96.00" departLane="54o_0" departPos="7.10" departSpeed="0.00" departDelay="0.00" arrival="185.00" arrivalLane="53i_0" arrivalPos="10.00" arrivalSpeed="11.76" duration="89.00" routeLength="1013.10" waitSteps="0" timeLoss="17.08" rerouteNo="0" devices="tripinfo_down_36" vType="typeNS" speedFactor="1.00" vaporized=""/>
    <tripinfo id="left_11" depart="35.00" departLane="52o_0" departPos="5.10" departSpeed="0.00" departDelay="6.00" arrival="212.00" arrivalLane="51i_0" arrivalPos="10.00" arrivalSpeed="11.79" duration="177.00" routeLength="1015.10" waitSteps="66" timeLoss="100.97" rerouteNo="0" devices="tripinfo_left_11" vType="typeWE" speedFactor="1.00" vaporized=""/>
    <tripinfo id="right_26" depart="61.00" departLane="51o_0" departPos="5.10" departSpeed="0.00" departDelay="0.00" arrival="213.00" arrivalLane="52i_0" arrivalPos="10.00" arrivalSpeed="11.40" duration="152.00" routeLength="1015.10" waitSteps="42" timeLoss="75.85" rerouteNo="0" devices="tripinfo_right_26" vType="typeWE" speedFactor="1.00" vaporized=""/>
    <tripinfo id="left_14" depart="40.00" departLane="52o_0" departPos="5.10" departSpeed="0.00" departDelay="9.00" arrival="215.00" arrivalLane="51i_0" arrivalPos="10.00" arrivalSpeed="11.65" duration="175.00" routeLength="1015.10" waitSteps="62" timeLoss="98.32" rerouteNo="0" devices="tripinfo_left_14" vType="typeWE" speedFactor="1.00" vaporized=""/>
    <tripinfo id="right_27" depart="69.00" departLane="51o_0" departPos="5.10" departSpeed="0.00" departDelay="0.00" arrival="215.00" arrivalLane="52i_0" arrivalPos="10.00" arrivalSpeed="11.70" duration="146.00" routeLength="1015.10" waitSteps="34" timeLoss="69.64" rerouteNo="0" devices="tripinfo_right_27" vType="typeWE" speedFactor="1.00" vaporized=""/>
    <tripinfo id="left_15" depart="46.00" departLane="52o_0" departPos="5.10" departSpeed="0.00" departDelay="13.00" arrival="217.00" arrivalLane="51i_0" arrivalPos="10.00" arrivalSpeed="11.42" duration="171.00" routeLength="1015.10" waitSteps="57" timeLoss="94.39" rerouteNo="0" devices="tripinfo_left_15" vType="typeWE" speedFactor="1.00" vaporized=""/>
    <tripinfo id="right_28" depart="76.00" departLane="51o_0" departPos="5.10" departSpeed="0.00" departDelay="0.00" arrival="217.00" arrivalLane="52i_0" arrivalPos="10.00" arrivalSpeed="11.37" duration="141.00" routeLength="1015.10" waitSteps="34" timeLoss="64.93" rerouteNo="0" devices="tripinfo_right_28" vType="typeWE" speedFactor="1.00" vaporized=""/>
    <tripinfo id="left_16" depart="51.00" departLane="52o_0" departPos="5.10" departSpeed="0.00" departDelay="16.00" arrival="218.00" arrivalLane="51i_0" arrivalPos="10.00" arrivalSpeed="11.21" duration="167.00" routeLength="1015.10" waitSteps="55" timeLoss="91.31" rerouteNo="0" devices="tripinfo_left_16" vType="typeWE" speedFactor="1.00" vaporized=""/>
    <tripinfo id="right_29" depart="81.00" departLane="51o_0" departPos="5.10" departSpeed="0.00" departDelay="4.00" arrival="219.00" arrivalLane="52i_0" arrivalPos="10.00" arrivalSpeed="10.91" duration="138.00" routeLength="1015.10" waitSteps="32" timeLoss="61.96" rerouteNo="0" devices="tripinfo_right_29" vType="typeWE" speedFactor="1.00" vaporized=""/>
    <tripinfo id="left_17" depart="56.00" departLane="52o_0" departPos="5.10" departSpeed="0.00" departDelay="15.00" arrival="221.00" arrivalLane="51i_0" arrivalPos="10.00" arrivalSpeed="11.37" duration="165.00" routeLength="1015.10" waitSteps="50" timeLoss="88.96" rerouteNo="0" devices="tripinfo_left_17" vType="typeWE" speedFactor="1.00" vaporized=""/>
    <tripinfo id="right_31" depart="86.00" departLane="51o_0" departPos="5.10" departSpeed="0.00" departDelay="2.00" arrival="221.00" arrivalLane="52i_0" arrivalPos="10.00" arrivalSpeed="11.21" duration="135.00" routeLength="1015.10" waitSteps="30" timeLoss="59.23" rerouteNo="0" devices="tripinfo_right_31" vType="typeWE" speedFactor="1.00" vaporized=""/>
    <tripinfo id="left_19" depart="61.00" departLane="52o_0" departPos="5.10" departSpeed="0.00" departDelay="16.00" arrival="223.00" arrivalLane="51i_0" arrivalPos="10.00" arrivalSpeed="11.47" duration="162.00" routeLength="1015.10" waitSteps="47" timeLoss="86.09" rerouteNo="0" devices="tripinfo_left_19" vType="typeWE" speedFactor="1.00" vaporized=""/>
    <tripinfo id="right_35" depart="92.00" departLane="51o_0" departPos="5.10" departSpeed="0.00" departDelay="0.00" arrival="223.00" arrivalLane="52i_0" arrivalPos="10.00" arrivalSpeed="11.36" duration="131.00" routeLength="1015.10" waitSteps="27" timeLoss="54.97" rerouteNo="0" devices="tripinfo_right_35" vType="typeWE" speedFactor="1.00" vaporized=""/>
    <tripinfo id="left_20" depart="66.00" departLane="52o_0" departPos="5.10" departSpeed="0.00" departDelay="20.00" arrival="225.00" arrivalLane="51i_0" arrivalPos="10.00" arrivalSpeed="10.99" duration="159.00" routeLength="1015.10" waitSteps="42" timeLoss="82.92" rerouteNo="0" devices="tripinfo_left_20" vType="typeWE" speedFactor="1.00" vaporized=""/>
    <tripinfo id="right_37" depart="101.00" departLane="51o_0" departPos="5.10" departSpeed="0.00" departDelay="2.00" arrival="225.00" arrivalLane="52i_0" arrivalPos="10.00" arrivalSpeed="11.17" duration="124.00" routeLength="1015.10" waitSteps="17" timeLoss="47.81" rerouteNo="0" devices="tripinfo_right_37" vType="typeWE" speedFactor="1.00" vaporized=""/>
    <tripinfo id="left_21" depart="71.00" departLane="52o_0" departPos="5.10" departSpeed="0.00" departDelay="20.00" arrival="227.00" arrivalLane="51i_0" arrivalPos="10.00" arrivalSpeed="11.38" duration="156.00" routeLength="1015.10" waitSteps="40" timeLoss="80.00" rerouteNo="0" devices="tripinfo_left_21" vType="typeWE" speedFactor="1.00" vaporized=""/>
    <tripinfo id="right_41" depart="106.00" departLane="51o_0" departPos="5.10" departSpeed="0.00" departDelay="0.00" arrival="227.00" arrivalLane="52i_0" arrivalPos="10.00" arrivalSpeed="11.48" duration="121.00" routeLength="1015.10" waitSteps="14" timeLoss="44.92" rerouteNo="0" devices="tripinfo_right_41" vType="typeWE" speedFactor="1.00" vaporized=""/>
    <tripinfo id="left_22" depart="76.00" departLane="52o_0" departPos="5.10" departSpeed="0.00" departDelay="23.00" arrival="229.00" arrivalLane="51i_0" arrivalPos="10.00" arrivalSpeed="11.44" duration="153.00" routeLength="1015.10" waitSteps="36" timeLoss="76.75" rerouteNo="0" devices="tripinfo_left_22" vType="typeWE" speedFactor="1.00" vaporized=""/>
    <tripinfo id="right_42" depart="111.00" departLane="51o_0" departPos="5.10" departSpeed="0.00" departDelay="3.00" arrival="229.00" arrivalLane="52i_0" arrivalPos="10.00" arrivalSpeed="11.70" duration="118.00" routeLength="1015.10" waitSteps="12" timeLoss="41.77" rerouteNo="0" devices="tripinfo_right_42" vType="typeWE" speedFactor="1.00" vaporized=""/>
    <tripinfo id="left_24" depart="81.00" departLane="52o_0" departPos="5.10" departSpeed="0.00" departDelay="25.00" arrival="231.00" arrivalLane="51i_0" arrivalPos="10.00" arrivalSpeed="11.56" duration="150.00" routeLength="1015.10" waitSteps="31" timeLoss="73.67" rerouteNo="0" devices="tripinfo_left_24" vType="typeWE" speedFactor="1.00" vaporized=""/>
    <tripinfo id="right_43" depart="116.00" departLane="51o_0" departPos="5.10" departSpeed="0.00" departDelay="5.00" arrival="231.00" arrivalLane="52i_0" arrivalPos="10.00" arrivalSpeed="11.29" duration="115.00" routeLength="1015.10" waitSteps="8" timeLoss="38.71" rerouteNo="0" devices="tripinfo_right_43" vType="typeWE" speedFactor="1.00" vaporized=""/>
    <tripinfo id="left_25" depart="86.00" departLane="52o_0" departPos="5.10" departSpeed="0.00" departDelay="28.00" arrival="233.00" arrivalLane="51i_0" arrivalPos="10.00" arrivalSpeed="11.64" duration="147.00" routeLength="1015.10" waitSteps="31" timeLoss="70.43" rerouteNo="0" devices="tripinfo_left_25" vType="typeWE" speedFactor="1.00" vaporized=""/>
    <tripinfo id="right_44" depart="121.00" departLane="51o_0" departPos="5.10" departSpeed="0.00" departDelay="7.00" arrival="233.00" arrivalLane="52i_0" arrivalPos="10.00" arrivalSpeed="11.29" duration="112.00" routeLength="1015.10" waitSteps="4" timeLoss="35.50" rerouteNo="0" devices="tripinfo_right_44" vType="typeWE" speedFactor="1.00" vaporized=""/>
    <tripinfo id="left_30" depart="91.00" departLane="52o_0" departPos="5.10" departSpeed="0.00" departDelay="13.00" arrival="234.00" arrivalLane="51i_0" arrivalPos="10.00" arrivalSpeed="10.95" duration="143.00" routeLength="1015.10" waitSteps="31" timeLoss="66.95" rerouteNo="0" devices="tripinfo_left_30" vType="typeWE" speedFactor="1.00" vaporized=""/>
    <tripinfo id="right_49" depart="126.00" departLane="51o_0" departPos="5.10" departSpeed="0.00" departDelay="1.00" arrival="235.00" arrivalLane="52i_0" arrivalPos="10.00" arrivalSpeed="11.33" duration="109.00" routeLength="1015.10" waitSteps="1" timeLoss="32.41" rerouteNo="0" devices="tripinfo_right_49" vType="typeWE" speedFactor="1.00" vaporized=""/>
    <tripinfo id="left_32" depart="96.00" departLane="52o_0" departPos="5.10" departSpeed="0.00" departDelay="11.00" arrival="236.00" arrivalLane="51i_0" arrivalPos="10.00" arrivalSpeed="11.80" duration="140.00" routeLength="1015.10" waitSteps="31" timeLoss="64.04" rerouteNo="0" devices="tripinfo_left_32" vType="typeWE" speedFactor="1.00" vaporized=""/>
    <tripinfo id="right_51" depart="135.00" departLane="51o_0" departPos="5.10" departSpeed="0.00" departDelay="0.00" arrival="237.00" arrivalLane="52i_0" arrivalPos="10.00" arrivalSpeed="11.70" duration="102.00" routeLength="1015.10" waitSteps="0" timeLoss="25.35" rerouteNo="0" devices="tripinfo_right_51" vType="typeWE" speedFactor="1.00" vaporized=""/>
    <tripinfo id="right_53" depart="140.00" departLane="51o_0" departPos="5.10" departSpeed="0.00" departDelay="2.00" arrival="238.00" arrivalLane="52i_0" arrivalPos="10.00" arrivalSpeed="11.01" duration="98.00" routeLength="1015.10" waitSteps="0" timeLoss="21.89" rerouteNo="0" devices="tripinfo_right_53" vType="typeWE" speedFactor="1.00" vaporized=""/>
    <tripinfo id="left_34" depart="101.00" departLane="52o_0" departPos="5.10" departSpeed="0.00" departDelay="10.00" arrival="238.00" arrivalLane="51i_0" arrivalPos="10.00" arrivalSpeed="11.73" duration="137.00" routeLength="1015.10" waitSteps="29" timeLoss="60.91" rerouteNo="0" devices="tripinfo_left_34" vType="typeWE" speedFactor="1.00" vaporized=""/>
    <tripinfo id="left_38" depart="106.00" departLane="52o_0" departPos="5.10" departSpeed="0.00" departDelay="7.00" arrival="240.00" arrivalLane="51i_0" arrivalPos="10.00" arrivalSpeed="11.67" duration="134.00" routeLength="1015.10" waitSteps="26" timeLoss="57.44" rerouteNo="0" devices="tripinfo_left_38" vType="typeWE" speedFactor="1.00" vaporized=""/>
    <tripinfo id="right_57" depart="145.00" departLane="51o_0" departPos="5.10" departSpeed="0.00" departDelay="1.00" arrival="240.00" arrivalLane="52i_0" arrivalPos="10.00" arrivalSpeed="11.68" duration="95.00" routeLength="1015.10" waitSteps="0" timeLoss="19.01" rerouteNo="0" devices="tripinfo_right_57" vType="typeWE" speedFactor="1.00" vaporized=""/>
    <tripinfo id="left_39" depart="111.00" departLane="52o_0" departPos="5.10" departSpeed="0.00" departDelay="10.00" arrival="242.00" arrivalLane="51i_0" arrivalPos="10.00" arrivalSpeed="11.21" duration="131.00" routeLength="1015.10" waitSteps="22" timeLoss="54.37" rerouteNo="0" devices="tripinfo_left_39" vType="typeWE" speedFactor="1.00" vaporized=""/>
    <tripinfo id="right_58" depart="150.00" departLane="51o_0" departPos="5.10" departSpeed="0.00" departDelay="5.00" arrival="242.00" arrivalLane="52i_0" arrivalPos="10.00" arrivalSpeed="11.33" duration="92.00" routeLength="1015.10" waitSteps="0" timeLoss="15.96" rerouteNo="0" devices="tripinfo_right_58" vType="typeWE" speedFactor="1.00" vaporized=""/>
    <tripinfo id="left_40" depart="116.00" departLane="52o_0" departPos="5.10" departSpeed="0.00" departDelay="12.00" arrival="243.00" arrivalLane="51i_0" arrivalPos="10.00" arrivalSpeed="10.88" duration="127.00" routeLength="1015.10" waitSteps="20" timeLoss="50.87" rerouteNo="0" devices="tripinfo_left_40" vType="typeWE" speedFactor="1.00" vaporized=""/>
    <tripinfo id="left_45" depart="121.00" departLane="52o_0" departPos="5.10" departSpeed="0.00" departDelay="7.00" arrival="245.00" arrivalLane="51i_0" arrivalPos="10.00" arrivalSpeed="11.83" duration="124.00" routeLength="1015.10" waitSteps="17" timeLoss="47.97" rerouteNo="0" devices="tripinfo_left_45" vType="typeWE" speedFactor="1.00" vaporized=""/>
    <tripinfo id="right_60" depart="155.00" departLane="51o_0" departPos="5.10" departSpeed="0.00" departDelay="0.00" arrival="246.00" arrivalLane="52i_0" arrivalPos="10.00" arrivalSpeed="11.47" duration="91.00" routeLength="1015.10" waitSteps="0" timeLoss="14.86" rerouteNo="0" devices="tripinfo_right_60" vType="typeWE" speedFactor="1.00" vaporized=""/>
    <tripinfo id="left_46" depart="126.00" departLane="52o_0" departPos="5.10" departSpeed="0.00" departDelay="8.00" arrival="248.00" arrivalLane="51i_0" arrivalPos="10.00" arrivalSpeed="11.55" duration="122.00" routeLength="1015.10" waitSteps="13" timeLoss="45.76" rerouteNo="0" devices="tripinfo_left_46" vType="typeWE" speedFactor="1.00" vaporized=""/>
    <tripinfo id="left_47" depart="131.00" departLane="52o_0" departPos="5.10" departSpeed="0.00" departDelay="12.00" arrival="250.00" arrivalLane="51i_0" arrivalPos="10.00" arrivalSpeed="11.52" duration="119.00" routeLength="1015.10" waitSteps="9" timeLoss="42.72" rerouteNo="0" devices="tripinfo_left_47" vType="typeWE" speedFactor="1.00" vaporized=""/>
    <tripinfo id="left_50" depart="136.00" departLane="52o_0" departPos="5.10" departSpeed="0.00" departDelay="5.00" arrival="252.00" arrivalLane="51i_0" arrivalPos="10.00" arrivalSpeed="11.30" duration="116.00" routeLength="1015.10" waitSteps="6" timeLoss="39.30" rerouteNo="0" devices="tripinfo_left_50" vType="typeWE" speedFactor="1.00" vaporized=""/>
    <tripinfo id="down_48" depart="122.00" departLane="54o_0" departPos="7.10" departSpeed="0.00" departDelay="0.00" arrival="266.00" arrivalLane="53i_0" arrivalPos="10.00" arrivalSpeed="11.75" duration="144.00" routeLength="1013.10" waitSteps="45" timeLoss="72.72" rerouteNo="0" devices="tripinfo_down_48" vType="typeNS" speedFactor="1.00" vaporized=""/>
    <tripinfo id="down_69" depart="172.00" departLane="54o_0" departPos="7.10" departSpeed="0.00" departDelay="0.00" arrival="268.00" arrivalLane="53i_0" arrivalPos="10.00" arrivalSpeed="10.77" duration="96.00" routeLength="1013.10" waitSteps="0" timeLoss="24.58" rerouteNo="0" devices="tripinfo_down_69" vType="typeNS" speedFactor="1.00" vaporized=""/>
    <tripinfo id="left_52" depart="141.00" departLane="52o_0" departPos="5.10" departSpeed="0.00" departDelay="6.00" arrival="284.00" arrivalLane="51i_0" arrivalPos="10.00" arrivalSpeed="11.19" duration="143.00" routeLength="1015.10" waitSteps="23" timeLoss="67.08" rerouteNo="0" devices="tripinfo_left_52" vType="typeWE" speedFactor="1.00" vaporized=""/>
    <tripinfo id="right_65" depart="167.00" departLane="51o_0" departPos="5.10" departSpeed="0.00" departDelay="0.00" arrival="284.00" arrivalLane="52i_0" arrivalPos="10.00" arrivalSpeed="11.57" duration="117.00" routeLength="1015.10" waitSteps="15" timeLoss="40.75" rerouteNo="0" devices="tripinfo_right_65" vType="typeWE" speedFactor="1.00" vaporized=""/>
    <tripinfo id="left_54" depart="146.00" departLane="52o_0" departPos="5.10" departSpeed="0.00" departDelay="8.00" arrival="287.00" arrivalLane="51i_0" arrivalPos="10.00" arrivalSpeed="11.42" duration="141.00" routeLength="1015.10" waitSteps="20" timeLoss="64.50" rerouteNo="0" devices="tripinfo_left_54" vType="typeWE" speedFactor="1.00" vaporized=""/>
    <tripinfo id="right_66" depart="173.00" departLane="51o_0" departPos="5.10" departSpeed="0.00" departDelay="5.00" arrival="287.00" arrivalLane="52i_0" arrivalPos="10.00" arrivalSpeed="11.54" duration="114.00" routeLength="1015.10" waitSteps="10" timeLoss="38.10" rerouteNo="0" devices="tripinfo_right_66" vType="typeWE" speedFactor="1.00" vaporized=""/>
    <tripinfo id="left_55" depart="151.00" departLane="52o_0" departPos="5.10" departSpeed="0.00" departDelay="9.00" arrival="289.00" arrivalLane="51i_0" arrivalPos="10.00" arrivalSpeed="11.51" duration="138.00" routeLength="1015.10" waitSteps="19" timeLoss="61.68" rerouteNo="0" devices="tripinfo_left_55" vType="typeWE" speedFactor="1.00" vaporized=""/>
    <tripinfo id="right_70" depart="178.00" departLane="51o_0" departPos="5.10" departSpeed="0.00" departDelay="2.00" arrival="289.00" arrivalLane="52i_0" arrivalPos="10.00" arrivalSpeed="11.46" duration="111.00" routeLength="1015.10" waitSteps="6" timeLoss="35.06" rerouteNo="0" devices="tripinfo_right_70" vType="typeWE" speedFactor="1.00" vaporized=""/>
    <tripinfo id="left_56" depart="156.00" departLane="52o_0" departPos="5.10" departSpeed="0.00" departDelay="13.00" arrival="320.00" arrivalLane="51i_0" arrivalPos="10.00" arrivalSpeed="11.88" duration="164.00" routeLength="1015.10" waitSteps="41" timeLoss="87.84" rerouteNo="0" devices="tripinfo_left_56" vType="typeWE" speedFactor="1.00" vaporized=""/>
    <tripinfo id="right_72" depart="183.00" departLane="51o_0" departPos="5.10" departSpeed="0.00" departDelay="2.00" arrival="321.00" arrivalLane="52i_0" arrivalPos="10.00" arrivalSpeed="11.67" duration="138.00" routeLength="1015.10" waitSteps="26" timeLoss="61.93" rerouteNo="0" devices="tripinfo_right_72" vType="typeWE" speedFactor="1.00" vaporized=""/>
    <tripinfo id="left_59" depart="161.00" departLane="52o_0" departPos="5.10" departSpeed="0.00" departDelay="8.00" arrival="323.00" arrivalLane="51i_0" arrivalPos="10.00" arrivalSpeed="11.35" duration="162.00" routeLength="1015.10" waitSteps="40" timeLoss="86.03" rerouteNo="0" devices="tripinfo_left_59" vType="typeWE" speedFactor="1.00" vaporized=""/>
    <tripinfo id="right_73" depart="188.00" departLane="51o_0" departPos="5.10" departSpeed="0.00" departDelay="5.00" arrival="323.00" arrivalLane="52i_0" arrivalPos="10.00" arrivalSpeed="11.39" duration="135.00" routeLength="1015.10" waitSteps="21" timeLoss="59.05" rerouteNo="0" devices="tripinfo_right_73" vType="typeWE" speedFactor="1.00" vaporized=""/>
    <tripinfo id="left_61" depart="169.00" departLane="52o_0" departPos="5.10" departSpeed="0.00" departDelay="13.00" arrival="325.00" arrivalLane="51i_0" arrivalPos="10.00" arrivalSpeed="11.65" duration="156.00" routeLength="1015.10" waitSteps="38" timeLoss="79.84" rerouteNo="0" devices="tripinfo_left_61" vType="typeWE" speedFactor="1.00" vaporized=""/>
    <tripinfo id="right_74" depart="193.00" departLane="51o_0" departPos="5.10" departSpeed="0.00" departDelay="9.00" arrival="325.00" arrivalLane="52i_0" arrivalPos="10.00" arrivalSpeed="11.64" duration="132.00" routeLength="1015.10" waitSteps="21" timeLoss="55.91" rerouteNo="0" devices="tripinfo_right_74" vType="typeWE" speedFactor="1.00" vaporized=""/>
    <tripinfo id="down_97" depart="238.00" departLane="54o_0" departPos="7.10" departSpeed="0.00" departDelay="0.00" arrival="338.00" arrivalLane="53i_0" arrivalPos="10.00" arrivalSpeed="11.43" duration="100.00" routeLength="1013.10" waitSteps="0" timeLoss="28.66" rerouteNo="0" devices="tripinfo_down_97" vType="typeNS" speedFactor="1.00" vaporized=""/>
    <tripinfo id="down_99" depart="244.00" departLane="54o_0" departPos="7.10" departSpeed="0.00" departDelay="2.00" arrival="340.00" arrivalLane="53i_0" arrivalPos="10.00" arrivalSpeed="11.79" duration="96.00" routeLength="1013.10" waitSteps="0" timeLoss="24.86" rerouteNo="0" devices="tripinfo_down_99" vType="typeNS" speedFactor="1.00" vaporized=""/>
    <tripinfo id="left_62" depart="174.00" departLane="52o_0" departPos="5.10" departSpeed="0.00" departDelay="14.00" arrival="356.00" arrivalLane="51i_0" arrivalPos="10.00" arrivalSpeed="11.83" duration="182.00" routeLength="1015.10" waitSteps="61" timeLoss="105.65" rerouteNo="0" devices="tripinfo_left_62" vType="typeWE" speedFactor="1.00" vaporized=""/>
    <tripinfo id="right_78" depart="198.00" departLane="51o_0" departPos="5.10" departSpeed="0.00" departDelay="1.00" arrival="356.00" arrivalLane="52i_0" arrivalPos="10.00" arrivalSpeed="11.55" duration="158.00" routeLength="1015.10" waitSteps="42" timeLoss="81.98" rerouteNo="0" devices="tripinfo_right_78" vType="typeWE" speedFactor="1.00" vaporized=""/>
    <tripinfo id="left_63" depart="179.00" departLane="52o_0" departPos="5.10" departSpeed="0.00" departDelay="15.00" arrival="359.00" arrivalLane="51i_0" arrivalPos="10.00" arrivalSpeed="11.58" duration="180.00" routeLength="1015.10" waitSteps="56" timeLoss="103.61" rerouteNo="0" devices="tripinfo_left_63" vType="typeWE" speedFactor="1.00" vaporized=""/>
    <tripinfo id="right_80" depart="203.00" departLane="51o_0" departPos="5.10" departSpeed="0.00" departDelay="3.00" arrival="359.00" arrivalLane="52i_0" arrivalPos="10.00" arrivalSpeed="11.36" duration="156.00" routeLength="1015.10" waitSteps="43" timeLoss="79.75" rerouteNo="0" devices="tripinfo_right_80" vType="typeWE" speedFactor="1.00" vaporized=""/>
    <tripinfo id="left_64" depart="184.00" departLane="52o_0" departPos="5.10" departSpeed="0.00" departDelay="18.00" arrival="361.00" arrivalLane="51i_0" arrivalPos="10.00" arrivalSpeed="11.30" duration="177.00" routeLength="1015.10" waitSteps="51" timeLoss="100.82" rerouteNo="0" devices="tripinfo_left_64" vType="typeWE" speedFactor="1.00" vaporized=""/>
    <tripinfo id="right_81" depart="208.00" departLane="51o_0" departPos="5.10" departSpeed="0.00" departDelay="1.00" arrival="361.00" arrivalLane="52i_0" arrivalPos="10.00" arrivalSpeed="11.28" duration="153.00" routeLength="1015.10" waitSteps="39" timeLoss="76.52" rerouteNo="0" devices="tripinfo_right_81" vType="typeWE" speedFactor="1.00" vaporized=""/>
    <tripinfo id="left_67" depart="189.00" departLane="52o_0" departPos="5.10" departSpeed="0.00" departDelay="20.00" arrival="363.00" arrivalLane="51i_0" arrivalPos="10.00" arrivalSpeed="11.46" duration="174.00" routeLength="1015.10" waitSteps="48" timeLoss="97.84" rerouteNo="0" devices="tripinfo_left_67" vType="typeWE" speedFactor="1.00" vaporized=""/>
    <tripinfo id="right_83" depart="218.00" departLane="51o_0" departPos="5.10" departSpeed="0.00" departDelay="7.00" arrival="363.00" arrivalLane="52i_0" arrivalPos="10.00" arrivalSpeed="11.50" duration="145.00" routeLength="1015.10" waitSteps="32" timeLoss="68.61" rerouteNo="0" devices="tripinfo_right_83" vType="typeWE" speedFactor="1.00" vaporized=""/>
    <tripinfo id="left_68" depart="194.00" departLane="52o_0" departPos="5.10" departSpeed="0.00" departDelay="22.00" arrival="365.00" arrivalLane="51i_0" arrivalPos="10.00" arrivalSpeed="11.81" duration="171.00" routeLength="1015.10" waitSteps="45" timeLoss="94.58" rerouteNo="0" devices="tripinfo_left_68" vType="typeWE" speedFactor="1.00" vaporized=""/>
    <tripinfo id="right_85" depart="223.00" departLane="51o_0" departPos="5.10" departSpeed="0.00" departDelay="11.00" arrival="365.00" arrivalLane="52i_0" arrivalPos="10.00" arrivalSpeed="11.54" duration="142.00" routeLength="1015.10" waitSteps="26" timeLoss="65.45" rerouteNo="0" devices="tripinfo_right_85" vType="typeWE" speedFactor="1.00" vaporized=""/>