<?xml version="1.0" encoding="UTF-8"?>

<!-- generated on Sun Mar  4 16:31:12 2018 by SUMO Version 0.32.0
<?xml version="1.0" encoding="UTF-8"?>

<configuration xmlns:xsi="http://www.w3.org/2001/XMLSchema-instance" xsi:noNamespaceSchemaLocation="http://sumo.dlr.de/xsd/sumoConfiguration.xsd">

    <input>
        <net-file value="data/cross.net.xml"/>
        <route-files value="data/cross.rou.xml"/>
        <additional-files value="data/cross.det.xml,data/cross.det2.xml"/>
    </input>

    <output>
        <tripinfo-output value="qlepisode3_tripinfo.xml"/>
    </output>

    <time>
        <begin value="0"/>
    </time>

    <report>
        <verbose value="true"/>
        <error-log value="errors"/>
        <no-step-log value="true"/>
    </report>

    <traci_server>
        <remote-port value="60735"/>
    </traci_server>

</configuration>
-->

<tripinfos xmlns:xsi="http://www.w3.org/2001/XMLSchema-instance" xsi:noNamespaceSchemaLocation="http://sumo.dlr.de/xsd/tripinfo_file.xsd">
    <tripinfo id="left_0" depart="0.00" departLane="52o_0" departPos="5.10" departSpeed="0.00" departDelay="0.00" arrival="92.00" arrivalLane="51i_0" arrivalPos="10.00" arrivalSpeed="11.55" duration="92.00" routeLength="1015.10" waitSteps="0" timeLoss="15.35" rerouteNo="0" devices="tripinfo_left_0" vType="typeWE" speedFactor="1.00" vaporized=""/>
    <tripinfo id="right_2" depart="3.00" departLane="51o_0" departPos="5.10" departSpeed="0.00" departDelay="0.00" arrival="94.00" arrivalLane="52i_0" arrivalPos="10.00" arrivalSpeed="11.53" duration="91.00" routeLength="1015.10" waitSteps="0" timeLoss="14.30" rerouteNo="0" devices="tripinfo_right_2" vType="typeWE" speedFactor="1.00" vaporized=""/>
    <tripinfo id="left_1" depart="5.00" departLane="52o_0" departPos="5.10" departSpeed="0.00" departDelay="3.00" arrival="96.00" arrivalLane="51i_0" arrivalPos="10.00" arrivalSpeed="11.38" duration="91.00" routeLength="1015.10" waitSteps="0" timeLoss="15.02" rerouteNo="0" devices="tripinfo_left_1" vType="typeWE" speedFactor="1.00" vaporized=""/>
    <tripinfo id="right_3" depart="8.00" departLane="51o_0" departPos="5.10" departSpeed="0.00" departDelay="4.00" arrival="100.00" arrivalLane="52i_0" arrivalPos="10.00" arrivalSpeed="11.25" duration="92.00" routeLength="1015.10" waitSteps="0" timeLoss="15.43" rerouteNo="0" devices="tripinfo_right_3" vType="typeWE" speedFactor="1.00" vaporized=""/>
    <tripinfo id="left_4" depart="10.00" departLane="52o_0" departPos="5.10" departSpeed="0.00" departDelay="6.00" arrival="101.00" arrivalLane="51i_0" arrivalPos="10.00" arrivalSpeed="11.52" duration="91.00" routeLength="1015.10" waitSteps="0" timeLoss="14.72" rerouteNo="0" devices="tripinfo_left_4" vType="typeWE" speedFactor="1.00" vaporized=""/>
    <tripinfo id="right_6" depart="13.00" departLane="51o_0" departPos="5.10" departSpeed="0.00" departDelay="4.00" arrival="104.00" arrivalLane="52i_0" arrivalPos="10.00" arrivalSpeed="10.98" duration="91.00" routeLength="1015.10" waitSteps="0" timeLoss="14.80" rerouteNo="0" devices="tripinfo_right_6" vType="typeWE" speedFactor="1.00" vaporized=""/>
    <tripinfo id="left_5" depart="15.00" departLane="52o_0" departPos="5.10" departSpeed="0.00" departDelay="9.00" arrival="106.00" arrivalLane="51i_0" arrivalPos="10.00" arrivalSpeed="11.65" duration="91.00" routeLength="1015.10" waitSteps="0" timeLoss="14.44" rerouteNo="0" devices="tripinfo_left_5" vType="typeWE" speedFactor="1.00" vaporized=""/>
    <tripinfo id="left_8" depart="20.00" departLane="52o_0" departPos="5.10" departSpeed="0.00" departDelay="5.00" arrival="111.00" arrivalLane="51i_0" arrivalPos="10.00" arrivalSpeed="11.79" duration="91.00" routeLength="1015.10" waitSteps="0" timeLoss="14.66" rerouteNo="0" devices="tripinfo_left_8" vType="typeWE" speedFactor="1.00" vaporized=""/>
    <tripinfo id="left_9" depart="25.00" departLane="52o_0" departPos="5.10" departSpeed="0.00" departDelay="6.00" arrival="116.00" arrivalLane="51i_0" arrivalPos="10.00" arrivalSpeed="11.55" duration="91.00" routeLength="1015.10" waitSteps="0" timeLoss="14.71" rerouteNo="0" devices="tripinfo_left_9" vType="typeWE" speedFactor="1.00" vaporized=""/>
    <tripinfo id="left_10" depart="30.00" departLane="52o_0" departPos="5.10" departSpeed="0.00" departDelay="8.00" arrival="121.00" arrivalLane="51i_0" arrivalPos="10.00" arrivalSpeed="11.24" duration="91.00" routeLength="1015.10" waitSteps="0" timeLoss="14.21" rerouteNo="0" devices="tripinfo_left_10" vType="typeWE" speedFactor="1.00" vaporized=""/>
    <tripinfo id="right_13" depart="30.00" departLane="51o_0" departPos="5.10" departSpeed="0.00" departDelay="0.00" arrival="122.00" arrivalLane="52i_0" arrivalPos="10.00" arrivalSpeed="11.46" duration="92.00" routeLength="1015.10" waitSteps="0" timeLoss="15.18" rerouteNo="0" devices="tripinfo_right_13" vType="typeWE" speedFactor="1.00" vaporized=""/>
    <tripinfo id="left_11" depart="35.00" departLane="52o_0" departPos="5.10" departSpeed="0.00" departDelay="6.00" arrival="126.00" arrivalLane="51i_0" arrivalPos="10.00" arrivalSpeed="11.48" duration="91.00" routeLength="1015.10" waitSteps="0" timeLoss="14.63" rerouteNo="0" devices="tripinfo_left_11" vType="typeWE" speedFactor="1.00" vaporized=""/>
    <tripinfo id="left_14" depart="40.00" departLane="52o_0" departPos="5.10" departSpeed="0.00" departDelay="9.00" arrival="132.00" arrivalLane="51i_0" arrivalPos="10.00" arrivalSpeed="11.68" duration="92.00" routeLength="1015.10" waitSteps="0" timeLoss="15.64" rerouteNo="0" devices="tripinfo_left_14" vType="typeWE" speedFactor="1.00" vaporized=""/>
    <tripinfo id="right_18" depart="42.00" departLane="51o_0" departPos="5.10" departSpeed="0.00" departDelay="0.00" arrival="133.00" arrivalLane="52i_0" arrivalPos="10.00" arrivalSpeed="11.56" duration="91.00" routeLength="1015.10" waitSteps="0" timeLoss="15.00" rerouteNo="0" devices="tripinfo_right_18" vType="typeWE" speedFactor="1.00" vaporized=""/>
    <tripinfo id="left_15" depart="46.00" departLane="52o_0" departPos="5.10" departSpeed="0.00" departDelay="13.00" arrival="138.00" arrivalLane="51i_0" arrivalPos="10.00" arrivalSpeed="11.70" duration="92.00" routeLength="1015.10" waitSteps="0" timeLoss="15.42" rerouteNo="0" devices="tripinfo_left_15" vType="typeWE" speedFactor="1.00" vaporized=""/>
    <tripinfo id="left_16" depart="51.00" departLane="52o_0" departPos="5.10" departSpeed="0.00" departDelay="16.00" arrival="142.00" arrivalLane="51i_0" arrivalPos="10.00" arrivalSpeed="11.61" duration="91.00" routeLength="1015.10" waitSteps="0" timeLoss="14.95" rerouteNo="0" devices="tripinfo_left_16" vType="typeWE" speedFactor="1.00" vaporized=""/>
    <tripinfo id="right_23" depart="55.00" departLane="51o_0" departPos="5.10" departSpeed="0.00" departDelay="0.00" arrival="145.00" arrivalLane="52i_0" arrivalPos="10.00" arrivalSpeed="11.44" duration="90.00" routeLength="1015.10" waitSteps="0" timeLoss="13.91" rerouteNo="0" devices="tripinfo_right_23" vType="typeWE" speedFactor="1.00" vaporized=""/>
    <tripinfo id="left_17" depart="56.00" departLane="52o_0" departPos="5.10" departSpeed="0.00" departDelay="15.00" arrival="147.00" arrivalLane="51i_0" arrivalPos="10.00" arrivalSpeed="11.32" duration="91.00" routeLength="1015.10" waitSteps="0" timeLoss="14.90" rerouteNo="0" devices="tripinfo_left_17" vType="typeWE" speedFactor="1.00" vaporized=""/>
    <tripinfo id="left_19" depart="61.00" departLane="52o_0" departPos="5.10" departSpeed="0.00" departDelay="16.00" arrival="153.00" arrivalLane="51i_0" arrivalPos="10.00" arrivalSpeed="11.17" duration="92.00" routeLength="1015.10" waitSteps="0" timeLoss="15.32" rerouteNo="0" devices="tripinfo_left_19" vType="typeWE" speedFactor="1.00" vaporized=""/>
    <tripinfo id="right_26" depart="61.00" departLane="51o_0" departPos="5.10" departSpeed="0.00" departDelay="0.00" arrival="153.00" arrivalLane="52i_0" arrivalPos="10.00" arrivalSpeed="11.65" duration="92.00" routeLength="1015.10" waitSteps="0" timeLoss="15.82" rerouteNo="0" devices="tripinfo_right_26" vType="typeWE" speedFactor="1.00" vaporized=""/>
    <tripinfo id="left_20" depart="66.00" departLane="52o_0" departPos="5.10" departSpeed="0.00" departDelay="20.00" arrival="159.00" arrivalLane="51i_0" arrivalPos="10.00" arrivalSpeed="11.50" duration="93.00" routeLength="1015.10" waitSteps="0" timeLoss="16.32" rerouteNo="0" devices="tripinfo_left_20" vType="typeWE" speedFactor="1.00" vaporized=""/>
    <tripinfo id="right_27" depart="69.00" departLane="51o_0" departPos="5.10" departSpeed="0.00" departDelay="0.00" arrival="160.00" arrivalLane="52i_0" arrivalPos="10.00" arrivalSpeed="11.36" duration="91.00" routeLength="1015.10" waitSteps="0" timeLoss="14.84" rerouteNo="0" devices="tripinfo_right_27" vType="typeWE" speedFactor="1.00" vaporized=""/>
    <tripinfo id="left_21" depart="72.00" departLane="52o_0" departPos="5.10" departSpeed="0.00" departDelay="21.00" arrival="163.00" arrivalLane="51i_0" arrivalPos="10.00" arrivalSpeed="11.75" duration="91.00" routeLength="1015.10" waitSteps="0" timeLoss="14.90" rerouteNo="0" devices="tripinfo_left_21" vType="typeWE" speedFactor="1.00" vaporized=""/>
    <tripinfo id="left_22" depart="77.00" departLane="52o_0" departPos="5.10" departSpeed="0.00" departDelay="24.00" arrival="168.00" arrivalLane="51i_0" arrivalPos="10.00" arrivalSpeed="11.60" duration="91.00" routeLength="1015.10" waitSteps="0" timeLoss="15.06" rerouteNo="0" devices="tripinfo_left_22" vType="typeWE" speedFactor="1.00" vaporized=""/>
    <tripinfo id="right_28" depart="76.00" departLane="51o_0" departPos="5.10" departSpeed="0.00" departDelay="0.00" arrival="168.00" arrivalLane="52i_0" arrivalPos="10.00" arrivalSpeed="11.83" duration="92.00" routeLength="1015.10" waitSteps="0" timeLoss="15.19" rerouteNo="0" devices="tripinfo_right_28" vType="typeWE" speedFactor="1.00" vaporized=""/>
    <tripinfo id="right_29" depart="81.00" departLane="51o_0" departPos="5.10" departSpeed="0.00" departDelay="4.00" arrival="172.00" arrivalLane="52i_0" arrivalPos="10.00" arrivalSpeed="11.48" duration="91.00" routeLength="1015.10" waitSteps="0" timeLoss="15.08" rerouteNo="0" devices="tripinfo_right_29" vType="typeWE" speedFactor="1.00" vaporized=""/>
    <tripinfo id="left_24" depart="82.00" departLane="52o_0" departPos="5.10" departSpeed="0.00" departDelay="26.00" arrival="173.00" arrivalLane="51i_0" arrivalPos="10.00" arrivalSpeed="11.63" duration="91.00" routeLength="1015.10" waitSteps="0" timeLoss="14.76" rerouteNo="0" devices="tripinfo_left_24" vType="typeWE" speedFactor="1.00" vaporized=""/>
    <tripinfo id="right_31" depart="86.00" departLane="51o_0" departPos="5.10" departSpeed="0.00" departDelay="2.00" arrival="177.00" arrivalLane="52i_0" arrivalPos="10.00" arrivalSpeed="11.50" duration="91.00" routeLength="1015.10" waitSteps="0" timeLoss="14.85" rerouteNo="0" devices="tripinfo_right_31" vType="typeWE" speedFactor="1.00" vaporized=""/>
    <tripinfo id="left_25" depart="87.00" departLane="52o_0" departPos="5.10" departSpeed="0.00" departDelay="29.00" arrival="178.00" arrivalLane="51i_0" arrivalPos="10.00" arrivalSpeed="11.41" duration="91.00" routeLength="1015.10" waitSteps="0" timeLoss="14.98" rerouteNo="0" devices="tripinfo_left_25" vType="typeWE" speedFactor="1.00" vaporized=""/>
    <tripinfo id="right_35" depart="92.00" departLane="51o_0" departPos="5.10" departSpeed="0.00" departDelay="0.00" arrival="183.00" arrivalLane="52i_0" arrivalPos="10.00" arrivalSpeed="11.41" duration="91.00" routeLength="1015.10" waitSteps="0" timeLoss="14.79" rerouteNo="0" devices="tripinfo_right_35" vType="typeWE" speedFactor="1.00" vaporized=""/>
    <tripinfo id="left_30" depart="94.00" departLane="52o_0" departPos="5.10" departSpeed="0.00" departDelay="16.00" arrival="186.00" arrivalLane="51i_0" arrivalPos="10.00" arrivalSpeed="11.28" duration="92.00" routeLength="1015.10" waitSteps="0" timeLoss="15.47" rerouteNo="0" devices="tripinfo_left_30" vType="typeWE" speedFactor="1.00" vaporized=""/>
    <tripinfo id="left_32" depart="100.00" departLane="52o_0" departPos="5.10" departSpeed="0.00" departDelay="15.00" arrival="191.00" arrivalLane="51i_0" arrivalPos="10.00" arrivalSpeed="11.52" duration="91.00" routeLength="1015.10" waitSteps="0" timeLoss="14.90" rerouteNo="0" devices="tripinfo_left_32" vType="typeWE" speedFactor="1.00" vaporized=""/>
    <tripinfo id="right_37" depart="101.00" departLane="51o_0" departPos="5.10" departSpeed="0.00" departDelay="2.00" arrival="192.00" arrivalLane="52i_0" arrivalPos="10.00" arrivalSpeed="11.70" duration="91.00" routeLength="1015.10" waitSteps="0" timeLoss="14.78" rerouteNo="0" devices="tripinfo_right_37" vType="typeWE" speedFactor="1.00" vaporized=""/>
    <tripinfo id="left_34" depart="105.00" departLane="52o_0" departPos="5.10" departSpeed="0.00" departDelay="14.00" arrival="196.00" arrivalLane="51i_0" arrivalPos="10.00" arrivalSpeed="11.69" duration="91.00" routeLength="1015.10" waitSteps="0" timeLoss="14.66" rerouteNo="0" devices="tripinfo_left_34" vType="typeWE" speedFactor="1.00" vaporized=""/>
    <tripinfo id="right_41" depart="106.00" departLane="51o_0" departPos="5.10" departSpeed="0.00" departDelay="0.00" arrival="197.00" arrivalLane="52i_0" arrivalPos="10.00" arrivalSpeed="11.55" duration="91.00" routeLength="1015.10" waitSteps="0" timeLoss="14.20" rerouteNo="0" devices="tripinfo_right_41" vType="typeWE" speedFactor="1.00" vaporized=""/>
    <tripinfo id="left_38" depart="110.00" departLane="52o_0" departPos="5.10" departSpeed="0.00" departDelay="11.00" arrival="201.00" arrivalLane="51i_0" arrivalPos="10.00" arrivalSpeed="11.68" duration="91.00" routeLength="1015.10" waitSteps="0" timeLoss="14.97" rerouteNo="0" devices="tripinfo_left_38" vType="typeWE" speedFactor="1.00" vaporized=""/>
    <tripinfo id="right_42" depart="111.00" departLane="51o_0" departPos="5.10" departSpeed="0.00" departDelay="3.00" arrival="202.00" arrivalLane="52i_0" arrivalPos="10.00" arrivalSpeed="11.29" duration="91.00" routeLength="1015.10" waitSteps="0" timeLoss="14.27" rerouteNo="0" devices="tripinfo_right_42" vType="typeWE" speedFactor="1.00" vaporized=""/>
    <tripinfo id="down_7" depart="13.00" departLane="54o_0" departPos="7.10" departSpeed="0.00" departDelay="0.00" arrival="219.00" arrivalLane="53i_0" arrivalPos="10.00" arrivalSpeed="11.25" duration="206.00" routeLength="1013.10" waitSteps="105" timeLoss="134.03" rerouteNo="0" devices="tripinfo_down_7" vType="typeNS" speedFactor="1.00" vaporized=""/>
    <tripinfo id="down_12" depart="29.00" departLane="54o_0" departPos="7.10" departSpeed="0.00" departDelay="0.00" arrival="221.00" arrivalLane="53i_0" arrivalPos="10.00" arrivalSpeed="11.77" duration="192.00" routeLength="1013.10" waitSteps="91" timeLoss="119.90" rerouteNo="0" devices="tripinfo_down_12" vType="typeNS" speedFactor="1.00" vaporized=""/>
    <tripinfo id="down_33" depart="89.00" departLane="54o_0" departPos="7.10" departSpeed="0.00" departDelay="0.00" arrival="223.00" arrivalLane="53i_0" arrivalPos="10.00" arrivalSpeed="11.71" duration="134.00" routeLength="1013.10" waitSteps="31" timeLoss="62.61" rerouteNo="0" devices="tripinfo_down_33" vType="typeNS" speedFactor="1.00" vaporized=""/>
    <tripinfo id="left_39" depart="115.00" departLane="52o_0" departPos="5.10" departSpeed="0.00" departDelay="14.00" arrival="236.00" arrivalLane="51i_0" arrivalPos="10.00" arrivalSpeed="11.47" duration="121.00" routeLength="1015.10" waitSteps="19" timeLoss="45.11" rerouteNo="0" devices="tripinfo_left_39" vType="typeWE" speedFactor="1.00" vaporized=""/>
    <tripinfo id="right_43" depart="116.00" departLane="51o_0" departPos="5.10" departSpeed="0.00" departDelay="5.00" arrival="237.00" arrivalLane="52i_0" arrivalPos="10.00" arrivalSpeed="11.69" duration="121.00" routeLength="1015.10" waitSteps="18" timeLoss="44.97" rerouteNo="0" devices="tripinfo_right_43" vType="typeWE" speedFactor="1.00" vaporized=""/>
    <tripinfo id="left_40" depart="122.00" departLane="52o_0" departPos="5.10" departSpeed="0.00" departDelay="18.00" arrival="238.00" arrivalLane="51i_0" arrivalPos="10.00" arrivalSpeed="11.88" duration="116.00" routeLength="1015.10" waitSteps="14" timeLoss="39.91" rerouteNo="0" devices="tripinfo_left_40" vType="typeWE" speedFactor="1.00" vaporized=""/>
    <tripinfo id="right_44" depart="121.00" departLane="51o_0" departPos="5.10" departSpeed="0.00" departDelay="7.00" arrival="239.00" arrivalLane="52i_0" arrivalPos="10.00" arrivalSpeed="11.78" duration="118.00" routeLength="1015.10" waitSteps="13" timeLoss="42.02" rerouteNo="0" devices="tripinfo_right_44" vType="typeWE" speedFactor="1.00" vaporized=""/>
    <tripinfo id="left_45" depart="127.00" departLane="52o_0" departPos="5.10" departSpeed="0.00" departDelay="13.00" arrival="241.00" arrivalLane="51i_0" arrivalPos="10.00" arrivalSpeed="11.13" duration="114.00" routeLength="1015.10" waitSteps="10" timeLoss="37.70" rerouteNo="0" devices="tripinfo_left_45" vType="typeWE" speedFactor="1.00" vaporized=""/>
    <tripinfo id="right_49" depart="127.00" departLane="51o_0" departPos="5.10" departSpeed="0.00" departDelay="2.00" arrival="241.00" arrivalLane="52i_0" arrivalPos="10.00" arrivalSpeed="11.53" duration="114.00" routeLength="1015.10" waitSteps="10" timeLoss="37.95" rerouteNo="0" devices="tripinfo_right_49" vType="typeWE" speedFactor="1.00" vaporized=""/>
    <tripinfo id="left_46" depart="133.00" departLane="52o_0" departPos="5.10" departSpeed="0.00" departDelay="15.00" arrival="243.00" arrivalLane="51i_0" arrivalPos="10.00" arrivalSpeed="11.17" duration="110.00" routeLength="1015.10" waitSteps="5" timeLoss="33.94" rerouteNo="0" devices="tripinfo_left_46" vType="typeWE" speedFactor="1.00" vaporized=""/>
    <tripinfo id="right_51" depart="135.00" departLane="51o_0" departPos="5.10" departSpeed="0.00" departDelay="0.00" arrival="243.00" arrivalLane="52i_0" arrivalPos="10.00" arrivalSpeed="11.35" duration="108.00" routeLength="1015.10" waitSteps="5" timeLoss="31.81" rerouteNo="0" devices="tripinfo_right_51" vType="typeWE" speedFactor="1.00" vaporized=""/>
    <tripinfo id="left_47" depart="138.00" departLane="52o_0" departPos="5.10" departSpeed="0.00" departDelay="19.00" arrival="245.00" arrivalLane="51i_0" arrivalPos="10.00" arrivalSpeed="11.44" duration="107.00" routeLength="1015.10" waitSteps="2" timeLoss="30.70" rerouteNo="0" devices="tripinfo_left_47" vType="typeWE" speedFactor="1.00" vaporized=""/>
    <tripinfo id="right_53" depart="140.00" departLane="51o_0" departPos="5.10" departSpeed="0.00" departDelay="2.00" arrival="245.00" arrivalLane="52i_0" arrivalPos="10.00" arrivalSpeed="11.74" duration="105.00" routeLength="1015.10" waitSteps="1" timeLoss="28.56" rerouteNo="0" devices="tripinfo_right_53" vType="typeWE" speedFactor="1.00" vaporized=""/>
    <tripinfo id="left_50" depart="145.00" departLane="52o_0" departPos="5.10" departSpeed="0.00" departDelay="14.00" arrival="247.00" arrivalLane="51i_0" arrivalPos="10.00" arrivalSpeed="11.27" duration="102.00" routeLength="1015.10" waitSteps="0" timeLoss="25.95" rerouteNo="0" devices="tripinfo_left_50" vType="typeWE" speedFactor="1.00" vaporized=""/>
    <tripinfo id="right_57" depart="145.00" departLane="51o_0" departPos="5.10" departSpeed="0.00" departDelay="1.00" arrival="247.00" arrivalLane="52i_0" arrivalPos="10.00" arrivalSpeed="11.39" duration="102.00" routeLength="1015.10" waitSteps="0" timeLoss="25.43" rerouteNo="0" devices="tripinfo_right_57" vType="typeWE" speedFactor="1.00" vaporized=""/>
    <tripinfo id="right_58" depart="150.00" departLane="51o_0" departPos="5.10" departSpeed="0.00" departDelay="5.00" arrival="248.00" arrivalLane="52i_0" arrivalPos="10.00" arrivalSpeed="11.05" duration="98.00" routeLength="1015.10" waitSteps="0" timeLoss="21.91" rerouteNo="0" devices="tripinfo_right_58" vType="typeWE" speedFactor="1.00" vaporized=""/>
    <tripinfo id="left_52" depart="150.00" departLane="52o_0" departPos="5.10" departSpeed="0.00" departDelay="15.00" arrival="249.00" arrivalLane="51i_0" arrivalPos="10.00" arrivalSpeed="11.64" duration="99.00" routeLength="1015.10" waitSteps="0" timeLoss="22.89" rerouteNo="0" devices="tripinfo_left_52" vType="typeWE" speedFactor="1.00" vaporized=""/>
    <tripinfo id="right_60" depart="155.00" departLane="51o_0" departPos="5.10" departSpeed="0.00" departDelay="0.00" arrival="250.00" arrivalLane="52i_0" arrivalPos="10.00" arrivalSpeed="11.26" duration="95.00" routeLength="1015.10" waitSteps="0" timeLoss="18.94" rerouteNo="0" devices="tripinfo_right_60" vType="typeWE" speedFactor="1.00" vaporized=""/>
    <tripinfo id="left_54" depart="155.00" departLane="52o_0" departPos="5.10" departSpeed="0.00" departDelay="17.00" arrival="251.00" arrivalLane="51i_0" arrivalPos="10.00" arrivalSpeed="11.76" duration="96.00" routeLength="1015.10" waitSteps="0" timeLoss="19.64" rerouteNo="0" devices="tripinfo_left_54" vType="typeWE" speedFactor="1.00" vaporized=""/>
    <tripinfo id="left_55" depart="160.00" departLane="52o_0" departPos="5.10" departSpeed="0.00" departDelay="18.00" arrival="253.00" arrivalLane="51i_0" arrivalPos="10.00" arrivalSpeed="11.17" duration="93.00" routeLength="1015.10" waitSteps="0" timeLoss="16.42" rerouteNo="0" devices="tripinfo_left_55" vType="typeWE" speedFactor="1.00" vaporized=""/>
    <tripinfo id="left_56" depart="165.00" departLane="52o_0" departPos="5.10" departSpeed="0.00" departDelay="22.00" arrival="256.00" arrivalLane="51i_0" arrivalPos="10.00" arrivalSpeed="11.41" duration="91.00" routeLength="1015.10" waitSteps="1" timeLoss="14.80" rerouteNo="0" devices="tripinfo_left_56" vType="typeWE" speedFactor="1.00" vaporized=""/>
    <tripinfo id="right_65" depart="168.00" departLane="51o_0" departPos="5.10" departSpeed="0.00" departDelay="1.00" arrival="260.00" arrivalLane="52i_0" arrivalPos="10.00" arrivalSpeed="11.56" duration="92.00" routeLength="1015.10" waitSteps="0" timeLoss="16.07" rerouteNo="0" devices="tripinfo_right_65" vType="typeWE" speedFactor="1.00" vaporized=""/>
    <tripinfo id="left_59" depart="172.00" departLane="52o_0" departPos="5.10" departSpeed="0.00" departDelay="19.00" arrival="263.00" arrivalLane="51i_0" arrivalPos="10.00" arrivalSpeed="11.36" duration="91.00" routeLength="1015.10" waitSteps="0" timeLoss="14.85" rerouteNo="0" devices="tripinfo_left_59" vType="typeWE" speedFactor="1.00" vaporized=""/>
    <tripinfo id="right_66" depart="173.00" departLane="51o_0" departPos="5.10" departSpeed="0.00" departDelay="5.00" arrival="266.00" arrivalLane="52i_0" arrivalPos="10.00" arrivalSpeed="11.68" duration="93.00" routeLength="1015.10" waitSteps="0" timeLoss="17.22" rerouteNo="0" devices="tripinfo_right_66" vType="typeWE" speedFactor="1.00" vaporized=""/>
    <tripinfo id="down_36" depart="96.00" departLane="54o_0" departPos="7.10" departSpeed="0.00" departDelay="0.00" arrival="279.00" arrivalLane="53i_0" arrivalPos="10.00" arrivalSpeed="11.50" duration="183.00" routeLength="1013.10" waitSteps="73" timeLoss="111.71" rerouteNo="0" devices="tripinfo_down_36" vType="typeNS" speedFactor="1.00" vaporized=""/>
    <tripinfo id="down_48" depart="122.00" departLane="54o_0" departPos="7.10" departSpeed="0.00" departDelay="0.00" arrival="281.00" arrivalLane="53i_0" arrivalPos="10.00" arrivalSpeed="11.50" duration="159.00" routeLength="1013.10" waitSteps="46" timeLoss="87.82" rerouteNo="0" devices="tripinfo_down_48" vType="typeNS" speedFactor="1.00" vaporized=""/>
    <tripinfo id="down_69" depart="172.00" departLane="54o_0" departPos="7.10" departSpeed="0.00" departDelay="0.00" arrival="284.00" arrivalLane="53i_0" arrivalPos="10.00" arrivalSpeed="11.33" duration="112.00" routeLength="1013.10" waitSteps="10" timeLoss="40.70" rerouteNo="0" devices="tripinfo_down_69" vType="typeNS" speedFactor="1.00" vaporized=""/>
    <tripinfo id="right_70" depart="178.00" departLane="51o_0" departPos="5.10" departSpeed="0.00" departDelay="2.00" arrival="332.00" arrivalLane="52i_0" arrivalPos="10.00" arrivalSpeed="11.47" duration="154.00" routeLength="1015.10" waitSteps="52" timeLoss="78.02" rerouteNo="0" devices="tripinfo_right_70" vType="typeWE" speedFactor="1.00" vaporized=""/>
    <tripinfo id="left_61" depart="177.00" departLane="52o_0" departPos="5.10" departSpeed="0.00" departDelay="21.00" arrival="333.00" arrivalLane="51i_0" arrivalPos="10.00" arrivalSpeed="11.51" duration="156.00" routeLength="1015.10" waitSteps="53" timeLoss="79.58" rerouteNo="0" devices="tripinfo_left_61" vType="typeWE" speedFactor="1.00" vaporized=""/>
    <tripinfo id="left_62" depart="183.00" departLane="52o_0" departPos="5.10" departSpeed="0.00" departDelay="23.00" arrival="335.00" arrivalLane="51i_0" arrivalPos="10.00" arrivalSpeed="11.40" duration="152.00" routeLength="1015.10" waitSteps="50" timeLoss="76.24" rerouteNo="0" devices="tripinfo_left_62" vType="typeWE" speedFactor="1.00" vaporized=""/>
    <tripinfo id="right_72" depart="186.00" departLane="51o_0" departPos="5.10" departSpeed="0.00" departDelay="5.00" arrival="335.00" arrivalLane="52i_0" arrivalPos="10.00" arrivalSpeed="11.43" duration="149.00" routeLength="1015.10" waitSteps="45" timeLoss="72.94" rerouteNo="0" devices="tripinfo_right_72" vType="typeWE" speedFactor="1.00" vaporized=""/>
    <tripinfo id="left_63" depart="188.00" departLane="52o_0" departPos="5.10" departSpeed="0.00" departDelay="24.00" arrival="338.00" arrivalLane="51i_0" arrivalPos="10.00" arrivalSpeed="11.50" duration="150.00" routeLength="1015.10" waitSteps="46" timeLoss="73.92" rerouteNo="0" devices="tripinfo_left_63" vType="typeWE" speedFactor="1.00" vaporized=""/>
    <tripinfo id="right_73" depart="191.00" departLane="51o_0" departPos="5.10" departSpeed="0.00" departDelay="8.00" arrival="338.00" arrivalLane="52i_0" arrivalPos="10.00" arrivalSpeed="11.42" duration="147.00" routeLength="1015.10" waitSteps="43" timeLoss="70.62" rerouteNo="0" devices="tripinfo_right_73" vType="typeWE" speedFactor="1.00" vaporized=""/>
    <tripinfo id="left_64" depart="193.00" departLane="52o_0" departPos="5.10" departSpeed="0.00" departDelay="27.00" arrival="340.00" arrivalLane="51i_0" arrivalPos="10.00" arrivalSpeed="11.49" duration="147.00" routeLength="1015.10" waitSteps="41" timeLoss="70.78" rerouteNo="0" devices="tripinfo_left_64" vType="typeWE" speedFactor="1.00" vaporized=""/>
    <tripinfo id="right_74" depart="196.00" departLane="51o_0" departPos="5.10" departSpeed="0.00" departDelay="12.00" arrival="340.00" arrivalLane="52i_0" arrivalPos="10.00" arrivalSpeed="11.49" duration="144.00" routeLength="1015.10" waitSteps="38" timeLoss="67.64" rerouteNo="0" devices="tripinfo_right_74" vType="typeWE" speedFactor="1.00" vaporized=""/>
    <tripinfo id="left_67" depart="198.00" departLane="52o_0" departPos="5.10" departSpeed="0.00" departDelay="29.00" arrival="342.00" arrivalLane="51i_0" arrivalPos="10.00" arrivalSpeed="11.67" duration="144.00" routeLength="1015.10" waitSteps="39" timeLoss="67.55" rerouteNo="0" devices="tripinfo_left_67" vType="typeWE" speedFactor="1.00" vaporized=""/>
    <tripinfo id="right_78" depart="201.00" departLane="51o_0" departPos="5.10" departSpeed="0.00" departDelay="4.00" arrival="342.00" arrivalLane="52i_0" arrivalPos="10.00" arrivalSpeed="11.61" duration="141.00" routeLength="1015.10" waitSteps="34" timeLoss="64.48" rerouteNo="0" devices="tripinfo_right_78" vType="typeWE" speedFactor="1.00" vaporized=""/>
    <tripinfo id="left_68" depart="204.00" departLane="52o_0" departPos="5.10" departSpeed="0.00" departDelay="32.00" arrival="343.00" arrivalLane="51i_0" arrivalPos="10.00" arrivalSpeed="10.82" duration="139.00" routeLength="1015.10" waitSteps="34" timeLoss="63.00" rerouteNo="0" devices="tripinfo_left_68" vType="typeWE" speedFactor="1.00" vaporized=""/>
    <tripinfo id="right_80" depart="206.00" departLane="51o_0" departPos="5.10" departSpeed="0.00" departDelay="6.00" arrival="344.00" arrivalLane="52i_0" arrivalPos="10.00" arrivalSpeed="11.49" duration="138.00" routeLength="1015.10" waitSteps="31" timeLoss="61.56" rerouteNo="0" devices="tripinfo_right_80" vType="typeWE" speedFactor="1.00" vaporized=""/>
    <tripinfo id="left_71" depart="209.00" departLane="52o_0" departPos="5.10" departSpeed="0.00" departDelay="33.00" arrival="345.00" arrivalLane="51i_0" arrivalPos="10.00" arrivalSpeed="11.30" duration="136.00" routeLength="1015.10" waitSteps="32" timeLoss="60.01" rerouteNo="0" devices="tripinfo_left_71" vType="typeWE" speedFactor="1.00" vaporized=""/>
    <tripinfo id="right_81" depart="211.00" departLane="51o_0" departPos="5.10" departSpeed="0.00" departDelay="4.00" arrival="346.00" arrivalLane="52i_0" arrivalPos="10.00" arrivalSpeed="11.32" duration="135.00" routeLength="1015.10" waitSteps="29" timeLoss="58.42" rerouteNo="0" devices="tripinfo_right_81" vType="typeWE" speedFactor="1.00" vaporized=""/>
    <tripinfo id="left_75" depart="214.00" departLane="52o_0" departPos="5.10" departSpeed="0.00" departDelay="29.00" arrival="347.00" arrivalLane="51i_0" arrivalPos="10.00" arrivalSpeed="11.48" duration="133.00" routeLength="1015.10" waitSteps="28" timeLoss="56.84" rerouteNo="0" devices="tripinfo_left_75" vType="typeWE" speedFactor="1.00" vaporized=""/>
    <tripinfo id="right_83" depart="216.00" departLane="51o_0" departPos="5.10" departSpeed="0.00" departDelay="5.00" arrival="347.00" arrivalLane="52i_0" arrivalPos="10.00" arrivalSpeed="11.29" duration="131.00" routeLength="1015.10" waitSteps="26" timeLoss="55.21" rerouteNo="0" devices="tripinfo_right_83" vType="typeWE" speedFactor="1.00" vaporized=""/>
    <tripinfo id="left_76" depart="219.00" departLane="52o_0" departPos="5.10" departSpeed="0.00" departDelay="25.00" arrival="349.00" arrivalLane="51i_0" arrivalPos="10.00" arrivalSpeed="11.68" duration="130.00" routeLength="1015.10" waitSteps="24" timeLoss="53.71" rerouteNo="0" devices="tripinfo_left_76" vType="typeWE" speedFactor="1.00" vaporized=""/>