<?xml version="1.0" encoding="UTF-8"?>

<!-- generated on Fri Mar 30 12:06:42 2018 by SUMO Version 0.32.0
<?xml version="1.0" encoding="UTF-8"?>

<configuration xmlns:xsi="http://www.w3.org/2001/XMLSchema-instance" xsi:noNamespaceSchemaLocation="http://sumo.dlr.de/xsd/sumoConfiguration.xsd">

    <input>
        <net-file value="data/multi/cross.net.xml"/>
        <route-files value="data/multi/cross.rou.xml"/>
        <additional-files value="data/multi/cross.det2.xml"/>
    </input>

    <output>
        <tripinfo-output value="fgreen=35_tripinfo.xml"/>
    </output>

    <time>
        <begin value="0"/>
    </time>

    <report>
        <verbose value="true"/>
        <error-log value="errors"/>
        <no-step-log value="true"/>
    </report>

    <traci_server>
        <remote-port value="56535"/>
    </traci_server>

</configuration>
-->

<detector xmlns:xsi="http://www.w3.org/2001/XMLSchema-instance" xsi:noNamespaceSchemaLocation="http://sumo.dlr.de/xsd/det_e2_file.xsd">
   <interval begin="0.00" end="141.00" id="0_0W" sampledSeconds="304.11" nVehEntered="23" nVehLeft="20" nVehSeen="23" meanSpeed="14.23" meanTimeLoss="1.94" meanOccupancy="5.26" maxOccupancy="7.50" meanMaxJamLengthInVehicles="0.00" meanMaxJamLengthInMeters="0.00" maxJamLengthInVehicles="0" maxJamLengthInMeters="0.00" jamLengthInVehiclesSum="0" jamLengthInMetersSum="0.00" meanHaltingDuration="0.00" maxHaltingDuration="0.00" haltingDurationSum="0.00" meanIntervalHaltingDuration="0.00" maxIntervalHaltingDuration="0.00" intervalHaltingDurationSum="0.00" startedHalts="0.00" meanVehicleNumber="2.30" maxVehicleNumber="4" />
   <interval begin="0.00" end="141.00" id="0_1N" sampledSeconds="700.45" nVehEntered="13" nVehLeft="0" nVehSeen="13" meanSpeed="2.69" meanTimeLoss="45.18" meanOccupancy="12.44" maxOccupancy="32.50" meanMaxJamLengthInVehicles="3.79" meanMaxJamLengthInMeters="26.53" maxJamLengthInVehicles="10" maxJamLengthInMeters="72.51" jamLengthInVehiclesSum="534" jamLengthInMetersSum="3740.55" meanHaltingDuration="49.55" maxHaltingDuration="107.00" haltingDurationSum="545.00" meanIntervalHaltingDuration="49.55" maxIntervalHaltingDuration="107.00" intervalHaltingDurationSum="545.00" startedHalts="11.00" meanVehicleNumber="5.01" maxVehicleNumber="13" />
   <interval begin="0.00" end="141.00" id="0_2E" sampledSeconds="215.66" nVehEntered="18" nVehLeft="16" nVehSeen="18" meanSpeed="16.31" meanTimeLoss="0.17" meanOccupancy="3.73" maxOccupancy="7.50" meanMaxJamLengthInVehicles="0.00" meanMaxJamLengthInMeters="0.00" maxJamLengthInVehicles="0" maxJamLengthInMeters="0.00" jamLengthInVehiclesSum="0" jamLengthInMetersSum="0.00" meanHaltingDuration="0.00" maxHaltingDuration="0.00" haltingDurationSum="0.00" meanIntervalHaltingDuration="0.00" maxIntervalHaltingDuration="0.00" intervalHaltingDurationSum="0.00" startedHalts="0.00" meanVehicleNumber="1.65" maxVehicleNumber="3" />
   <interval begin="0.00" end="141.00" id="0_3S" sampledSeconds="0.00" nVehEntered="0" nVehLeft="0" nVehSeen="0" meanSpeed="-1.00" meanTimeLoss="-1.00" meanOccupancy="0.00" maxOccupancy="0.00" meanMaxJamLengthInVehicles="0.00" meanMaxJamLengthInMeters="0.00" maxJamLengthInVehicles="0" maxJamLengthInMeters="0.00" jamLengthInVehiclesSum="0" jamLengthInMetersSum="0.00" meanHaltingDuration="0.00" maxHaltingDuration="0.00" haltingDurationSum="0.00" meanIntervalHaltingDuration="0.00" maxIntervalHaltingDuration="0.00" intervalHaltingDurationSum="0.00" startedHalts="0.00" meanVehicleNumber="0.00" maxVehicleNumber="0" />
   <interval begin="0.00" end="142.00" id="1_0W" sampledSeconds="210.43" nVehEntered="18" nVehLeft="15" nVehSeen="18" meanSpeed="16.26" meanTimeLoss="0.21" meanOccupancy="3.62" maxOccupancy="7.50" meanMaxJamLengthInVehicles="0.00" meanMaxJamLengthInMeters="0.00" maxJamLengthInVehicles="0" maxJamLengthInMeters="0.00" jamLengthInVehiclesSum="0" jamLengthInMetersSum="0.00" meanHaltingDuration="0.00" maxHaltingDuration="0.00" haltingDurationSum="0.00" meanIntervalHaltingDuration="0.00" maxIntervalHaltingDuration="0.00" intervalHaltingDurationSum="0.00" startedHalts="0.00" meanVehicleNumber="1.60" maxVehicleNumber="3" />
   <interval begin="0.00" end="142.00" id="1_1N" sampledSeconds="701.97" nVehEntered="10" nVehLeft="0" nVehSeen="10" meanSpeed="2.35" meanTimeLoss="60.28" meanOccupancy="12.39" maxOccupancy="25.00" meanMaxJamLengthInVehicles="3.94" meanMaxJamLengthInMeters="27.68" maxJamLengthInVehicles="10" maxJamLengthInMeters="72.51" jamLengthInVehiclesSum="560" jamLengthInMetersSum="3930.84" meanHaltingDuration="57.00" maxHaltingDuration="109.00" haltingDurationSum="570.00" meanIntervalHaltingDuration="57.00" maxIntervalHaltingDuration="109.00" intervalHaltingDurationSum="570.00" startedHalts="10.00" meanVehicleNumber="4.97" maxVehicleNumber="10" />
   <interval begin="0.00" end="142.00" id="1_2E" sampledSeconds="319.32" nVehEntered="24" nVehLeft="21" nVehSeen="24" meanSpeed="14.26" meanTimeLoss="1.93" meanOccupancy="5.46" maxOccupancy="7.50" meanMaxJamLengthInVehicles="0.00" meanMaxJamLengthInMeters="0.00" maxJamLengthInVehicles="0" maxJamLengthInMeters="0.00" jamLengthInVehiclesSum="0" jamLengthInMetersSum="0.00" meanHaltingDuration="0.00" maxHaltingDuration="0.00" haltingDurationSum="0.00" meanIntervalHaltingDuration="0.00" maxIntervalHaltingDuration="0.00" intervalHaltingDurationSum="0.00" startedHalts="0.00" meanVehicleNumber="2.39" maxVehicleNumber="3" />
   <interval begin="0.00" end="142.00" id="1_3S" sampledSeconds="0.00" nVehEntered="0" nVehLeft="0" nVehSeen="0" meanSpeed="-1.00" meanTimeLoss="-1.00" meanOccupancy="0.00" maxOccupancy="0.00" meanMaxJamLengthInVehicles="0.00" meanMaxJamLengthInMeters="0.00" maxJamLengthInVehicles="0" maxJamLengthInMeters="0.00" jamLengthInVehiclesSum="0" jamLengthInMetersSum="0.00" meanHaltingDuration="0.00" maxHaltingDuration="0.00" haltingDurationSum="0.00" meanIntervalHaltingDuration="0.00" maxIntervalHaltingDuration="0.00" intervalHaltingDurationSum="0.00" startedHalts="0.00" meanVehicleNumber="0.00" maxVehicleNumber="0" />
   <interval begin="0.00" end="143.00" id="2_0W" sampledSeconds="185.63" nVehEntered="15" nVehLeft="14" nVehSeen="15" meanSpeed="16.34" meanTimeLoss="0.16" meanOccupancy="3.15" maxOccupancy="7.50" meanMaxJamLengthInVehicles="0.00" meanMaxJamLengthInMeters="0.00" maxJamLengthInVehicles="0" maxJamLengthInMeters="0.00" jamLengthInVehiclesSum="0" jamLengthInMetersSum="0.00" meanHaltingDuration="0.00" maxHaltingDuration="0.00" haltingDurationSum="0.00" meanIntervalHaltingDuration="0.00" maxIntervalHaltingDuration="0.00" intervalHaltingDurationSum="0.00" startedHalts="0.00" meanVehicleNumber="1.37" maxVehicleNumber="3" />
   <interval begin="0.00" end="143.00" id="2_1N" sampledSeconds="0.00" nVehEntered="0" nVehLeft="0" nVehSeen="0" meanSpeed="-1.00" meanTimeLoss="-1.00" meanOccupancy="0.00" maxOccupancy="0.00" meanMaxJamLengthInVehicles="0.00" meanMaxJamLengthInMeters="0.00" maxJamLengthInVehicles="0" maxJamLengthInMeters="0.00" jamLengthInVehiclesSum="0" jamLengthInMetersSum="0.00" meanHaltingDuration="0.00" maxHaltingDuration="0.00" haltingDurationSum="0.00" meanIntervalHaltingDuration="0.00" maxIntervalHaltingDuration="0.00" intervalHaltingDurationSum="0.00" startedHalts="0.00" meanVehicleNumber="0.00" maxVehicleNumber="0" />
   <interval begin="0.00" end="143.00" id="2_2E" sampledSeconds="274.13" nVehEntered="20" nVehLeft="19" nVehSeen="20" meanSpeed="14.36" meanTimeLoss="1.90" meanOccupancy="4.64" maxOccupancy="10.00" meanMaxJamLengthInVehicles="0.00" meanMaxJamLengthInMeters="0.00" maxJamLengthInVehicles="0" maxJamLengthInMeters="0.00" jamLengthInVehiclesSum="0" jamLengthInMetersSum="0.00" meanHaltingDuration="0.00" maxHaltingDuration="0.00" haltingDurationSum="0.00" meanIntervalHaltingDuration="0.00" maxIntervalHaltingDuration="0.00" intervalHaltingDurationSum="0.00" startedHalts="0.00" meanVehicleNumber="2.05" maxVehicleNumber="4" />
   <interval begin="0.00" end="143.00" id="2_3S" sampledSeconds="859.18" nVehEntered="16" nVehLeft="0" nVehSeen="16" meanSpeed="2.64" meanTimeLoss="45.19" meanOccupancy="15.09" maxOccupancy="40.00" meanMaxJamLengthInVehicles="4.58" meanMaxJamLengthInMeters="32.86" maxJamLengthInVehicles="15" maxJamLengthInMeters="110.04" jamLengthInVehiclesSum="655" jamLengthInMetersSum="4698.46" meanHaltingDuration="44.67" maxHaltingDuration="87.00" haltingDurationSum="670.00" meanIntervalHaltingDuration="44.67" maxIntervalHaltingDuration="87.00" intervalHaltingDurationSum="670.00" startedHalts="15.00" meanVehicleNumber="6.06" maxVehicleNumber="16" />
   <interval begin="0.00" end="144.00" id="3_0W" sampledSeconds="248.76" nVehEntered="18" nVehLeft="16" nVehSeen="18" meanSpeed="14.25" meanTimeLoss="2.01" meanOccupancy="4.23" maxOccupancy="9.30" meanMaxJamLengthInVehicles="0.00" meanMaxJamLengthInMeters="0.00" maxJamLengthInVehicles="0" maxJamLengthInMeters="0.00" jamLengthInVehiclesSum="0" jamLengthInMetersSum="0.00" meanHaltingDuration="0.00" maxHaltingDuration="0.00" haltingDurationSum="0.00" meanIntervalHaltingDuration="0.00" maxIntervalHaltingDuration="0.00" intervalHaltingDurationSum="0.00" startedHalts="0.00" meanVehicleNumber="1.84" maxVehicleNumber="4" />
   <interval begin="0.00" end="144.00" id="3_1N" sampledSeconds="0.00" nVehEntered="0" nVehLeft="0" nVehSeen="0" meanSpeed="-1.00" meanTimeLoss="-1.00" meanOccupancy="0.00" maxOccupancy="0.00" meanMaxJamLengthInVehicles="0.00" meanMaxJamLengthInMeters="0.00" maxJamLengthInVehicles="0" maxJamLengthInMeters="0.00" jamLengthInVehiclesSum="0" jamLengthInMetersSum="0.00" meanHaltingDuration="0.00" maxHaltingDuration="0.00" haltingDurationSum="0.00" meanIntervalHaltingDuration="0.00" maxIntervalHaltingDuration="0.00" intervalHaltingDurationSum="0.00" startedHalts="0.00" meanVehicleNumber="0.00" maxVehicleNumber="0" />
   <interval begin="0.00" end="144.00" id="3_2E" sampledSeconds="205.71" nVehEntered="17" nVehLeft="16" nVehSeen="17" meanSpeed="16.27" meanTimeLoss="0.21" meanOccupancy="3.47" maxOccupancy="7.50" meanMaxJamLengthInVehicles="0.00" meanMaxJamLengthInMeters="0.00" maxJamLengthInVehicles="0" maxJamLengthInMeters="0.00" jamLengthInVehiclesSum="0" jamLengthInMetersSum="0.00" meanHaltingDuration="0.00" maxHaltingDuration="0.00" haltingDurationSum="0.00" meanIntervalHaltingDuration="0.00" maxIntervalHaltingDuration="0.00" intervalHaltingDurationSum="0.00" startedHalts="0.00" meanVehicleNumber="1.54" maxVehicleNumber="4" />
   <interval begin="0.00" end="144.00" id="3_3S" sampledSeconds="1221.10" nVehEntered="17" nVehLeft="0" nVehSeen="17" meanSpeed="1.88" meanTimeLoss="63.72" meanOccupancy="21.28" maxOccupancy="42.50" meanMaxJamLengthInVehicles="7.04" meanMaxJamLengthInMeters="51.00" maxJamLengthInVehicles="16" maxJamLengthInMeters="117.53" jamLengthInVehiclesSum="1014" jamLengthInMetersSum="7343.77" meanHaltingDuration="64.38" maxHaltingDuration="106.00" haltingDurationSum="1030.00" meanIntervalHaltingDuration="64.38" maxIntervalHaltingDuration="106.00" intervalHaltingDurationSum="1030.00" startedHalts="16.00" meanVehicleNumber="8.56" maxVehicleNumber="17" />
   <interval begin="141.00" end="165.00" id="0_0W" sampledSeconds="118.25" nVehEntered="4" nVehLeft="0" nVehSeen="7" meanSpeed="7.28" meanTimeLoss="9.51" meanOccupancy="12.42" maxOccupancy="17.50" meanMaxJamLengthInVehicles="1.88" meanMaxJamLengthInMeters="12.19" maxJamLengthInVehicles="4" maxJamLengthInMeters="27.52" jamLengthInVehiclesSum="45" jamLengthInMetersSum="292.55" meanHaltingDuration="12.25" maxHaltingDuration="19.00" haltingDurationSum="49.00" meanIntervalHaltingDuration="12.25" maxIntervalHaltingDuration="19.00" intervalHaltingDurationSum="49.00" startedHalts="4.00" meanVehicleNumber="5.04" maxVehicleNumber="7" />
   <interval begin="141.00" end="165.00" id="0_1N" sampledSeconds="349.02" nVehEntered="2" nVehLeft="0" nVehSeen="15" meanSpeed="0.89" meanTimeLoss="22.02" meanOccupancy="36.37" maxOccupancy="37.50" meanMaxJamLengthInVehicles="13.21" meanMaxJamLengthInMeters="96.58" maxJamLengthInVehicles="15" maxJamLengthInMeters="110.05" jamLengthInVehiclesSum="317" jamLengthInMetersSum="2318.01" meanHaltingDuration="57.73" maxHaltingDuration="131.00" haltingDurationSum="866.00" meanIntervalHaltingDuration="21.40" maxIntervalHaltingDuration="24.00" intervalHaltingDurationSum="321.00" startedHalts="4.00" meanVehicleNumber="14.58" maxVehicleNumber="15" />
   <interval begin="141.00" end="165.00" id="0_2E" sampledSeconds="103.86" nVehEntered="3" nVehLeft="0" nVehSeen="5" meanSpeed="6.57" meanTimeLoss="12.59" meanOccupancy="10.94" maxOccupancy="12.50" meanMaxJamLengthInVehicles="2.08" meanMaxJamLengthInMeters="13.65" maxJamLengthInVehicles="5" maxJamLengthInMeters="35.02" jamLengthInVehiclesSum="50" jamLengthInMetersSum="327.57" meanHaltingDuration="11.00" maxHaltingDuration="20.00" haltingDurationSum="55.00" meanIntervalHaltingDuration="11.00" maxIntervalHaltingDuration="20.00" intervalHaltingDurationSum="55.00" startedHalts="5.00" meanVehicleNumber="4.38" maxVehicleNumber="5" />
   <interval begin="141.00" end="165.00" id="0_3S" sampledSeconds="0.00" nVehEntered="0" nVehLeft="0" nVehSeen="0" meanSpeed="-1.00" meanTimeLoss="-1.00" meanOccupancy="0.00" maxOccupancy="0.00" meanMaxJamLengthInVehicles="0.00" meanMaxJamLengthInMeters="0.00" maxJamLengthInVehicles="0" maxJamLengthInMeters="0.00" jamLengthInVehiclesSum="0" jamLengthInMetersSum="0.00" meanHaltingDuration="0.00" maxHaltingDuration="0.00" haltingDurationSum="0.00" meanIntervalHaltingDuration="0.00" maxIntervalHaltingDuration="0.00" intervalHaltingDurationSum="0.00" startedHalts="0.00" meanVehicleNumber="0.00" maxVehicleNumber="0" />
   <interval begin="142.00" end="166.00" id="1_0W" sampledSeconds="84.26" nVehEntered="2" nVehLeft="1" nVehSeen="5" meanSpeed="7.23" meanTimeLoss="9.53" meanOccupancy="8.85" maxOccupancy="10.00" meanMaxJamLengthInVehicles="1.54" meanMaxJamLengthInMeters="9.90" maxJamLengthInVehicles="4" maxJamLengthInMeters="27.51" jamLengthInVehiclesSum="37" jamLengthInMetersSum="237.63" meanHaltingDuration="10.25" maxHaltingDuration="17.00" haltingDurationSum="41.00" meanIntervalHaltingDuration="10.25" maxIntervalHaltingDuration="17.00" intervalHaltingDurationSum="41.00" startedHalts="4.00" meanVehicleNumber="3.58" maxVehicleNumber="4" />
   <interval begin="142.00" end="166.00" id="1_1N" sampledSeconds="244.42" nVehEntered="1" nVehLeft="0" nVehSeen="11" meanSpeed="0.22" meanTimeLoss="21.93" meanOccupancy="25.51" maxOccupancy="27.50" meanMaxJamLengthInVehicles="10.00" meanMaxJamLengthInMeters="72.51" maxJamLengthInVehicles="10" maxJamLengthInMeters="72.51" jamLengthInVehiclesSum="240" jamLengthInMetersSum="1740.22" meanHaltingDuration="81.00" maxHaltingDuration="133.00" haltingDurationSum="810.00" meanIntervalHaltingDuration="24.00" maxIntervalHaltingDuration="24.00" intervalHaltingDurationSum="240.00" startedHalts="0.00" meanVehicleNumber="10.21" maxVehicleNumber="11" />
   <interval begin="142.00" end="166.00" id="1_2E" sampledSeconds="118.36" nVehEntered="4" nVehLeft="0" nVehSeen="7" meanSpeed="7.09" meanTimeLoss="9.72" meanOccupancy="12.40" maxOccupancy="17.50" meanMaxJamLengthInVehicles="1.96" meanMaxJamLengthInMeters="12.71" maxJamLengthInVehicles="4" maxJamLengthInMeters="27.51" jamLengthInVehiclesSum="47" jamLengthInMetersSum="305.10" meanHaltingDuration="10.40" maxHaltingDuration="20.00" haltingDurationSum="52.00" meanIntervalHaltingDuration="10.40" maxIntervalHaltingDuration="20.00" intervalHaltingDurationSum="52.00" startedHalts="5.00" meanVehicleNumber="5.04" maxVehicleNumber="7" />
   <interval begin="142.00" end="166.00" id="1_3S" sampledSeconds="0.00" nVehEntered="0" nVehLeft="0" nVehSeen="0" meanSpeed="-1.00" meanTimeLoss="-1.00" meanOccupancy="0.00" maxOccupancy="0.00" meanMaxJamLengthInVehicles="0.00" meanMaxJamLengthInMeters="0.00" maxJamLengthInVehicles="0" maxJamLengthInMeters="0.00" jamLengthInVehiclesSum="0" jamLengthInMetersSum="0.00" meanHaltingDuration="0.00" maxHaltingDuration="0.00" haltingDurationSum="0.00" meanIntervalHaltingDuration="0.00" maxIntervalHaltingDuration="0.00" intervalHaltingDurationSum="0.00" startedHalts="0.00" meanVehicleNumber="0.00" maxVehicleNumber="0" />
   <interval begin="143.00" end="167.00" id="2_0W" sampledSeconds="55.18" nVehEntered="2" nVehLeft="0" nVehSeen="3" meanSpeed="7.30" meanTimeLoss="10.34" meanOccupancy="5.80" maxOccupancy="7.50" meanMaxJamLengthInVehicles="1.04" meanMaxJamLengthInMeters="5.83" maxJamLengthInVehicles="2" maxJamLengthInMeters="12.52" jamLengthInVehiclesSum="25" jamLengthInMetersSum="140.04" meanHaltingDuration="13.50" maxHaltingDuration="20.00" haltingDurationSum="27.00" meanIntervalHaltingDuration="13.50" maxIntervalHaltingDuration="20.00" intervalHaltingDurationSum="27.00" startedHalts="2.00" meanVehicleNumber="2.33" maxVehicleNumber="3" />
   <interval begin="143.00" end="167.00" id="2_1N" sampledSeconds="0.00" nVehEntered="0" nVehLeft="0" nVehSeen="0" meanSpeed="-1.00" meanTimeLoss="-1.00" meanOccupancy="0.00" maxOccupancy="0.00" meanMaxJamLengthInVehicles="0.00" meanMaxJamLengthInMeters="0.00" maxJamLengthInVehicles="0" maxJamLengthInMeters="0.00" jamLengthInVehiclesSum="0" jamLengthInMetersSum="0.00" meanHaltingDuration="0.00" maxHaltingDuration="0.00" haltingDurationSum="0.00" meanIntervalHaltingDuration="0.00" maxIntervalHaltingDuration="0.00" intervalHaltingDurationSum="0.00" startedHalts="0.00" meanVehicleNumber="0.00" maxVehicleNumber="0" />
   <interval begin="143.00" end="167.00" id="2_2E" sampledSeconds="84.65" nVehEntered="5" nVehLeft="0" nVehSeen="6" meanSpeed="9.66" meanTimeLoss="5.93" meanOccupancy="8.96" maxOccupancy="15.00" meanMaxJamLengthInVehicles="0.75" meanMaxJamLengthInMeters="4.48" maxJamLengthInVehicles="3" maxJamLengthInMeters="20.00" jamLengthInVehiclesSum="18" jamLengthInMetersSum="107.52" meanHaltingDuration="7.00" maxHaltingDuration="12.00" haltingDurationSum="21.00" meanIntervalHaltingDuration="7.00" maxIntervalHaltingDuration="12.00" intervalHaltingDurationSum="21.00" startedHalts="3.00" meanVehicleNumber="3.58" maxVehicleNumber="6" />
   <interval begin="143.00" end="167.00" id="2_3S" sampledSeconds="407.85" nVehEntered="1" nVehLeft="0" nVehSeen="17" meanSpeed="0.23" meanTimeLoss="23.67" meanOccupancy="42.50" maxOccupancy="42.50" meanMaxJamLengthInVehicles="16.50" meanMaxJamLengthInMeters="121.27" maxJamLengthInVehicles="17" maxJamLengthInMeters="125.02" jamLengthInVehiclesSum="396" jamLengthInMetersSum="2910.40" meanHaltingDuration="62.82" maxHaltingDuration="111.00" haltingDurationSum="1068.00" meanIntervalHaltingDuration="23.41" maxIntervalHaltingDuration="24.00" intervalHaltingDurationSum="398.00" startedHalts="2.00" meanVehicleNumber="17.00" maxVehicleNumber="17" />
   <interval begin="144.00" end="168.00" id="3_0W" sampledSeconds="86.07" nVehEntered="5" nVehLeft="1" nVehSeen="7" meanSpeed="8.93" meanTimeLoss="5.71" meanOccupancy="9.10" maxOccupancy="15.00" meanMaxJamLengthInVehicles="0.96" meanMaxJamLengthInMeters="5.83" maxJamLengthInVehicles="3" maxJamLengthInMeters="20.00" jamLengthInVehiclesSum="23" jamLengthInMetersSum="140.02" meanHaltingDuration="8.67" maxHaltingDuration="14.00" haltingDurationSum="26.00" meanIntervalHaltingDuration="8.67" maxIntervalHaltingDuration="14.00" intervalHaltingDurationSum="26.00" startedHalts="3.00" meanVehicleNumber="3.71" maxVehicleNumber="6" />
   <interval begin="144.00" end="168.00" id="3_1N" sampledSeconds="0.00" nVehEntered="0" nVehLeft="0" nVehSeen="0" meanSpeed="-1.00" meanTimeLoss="-1.00" meanOccupancy="0.00" maxOccupancy="0.00" meanMaxJamLengthInVehicles="0.00" meanMaxJamLengthInMeters="0.00" maxJamLengthInVehicles="0" maxJamLengthInMeters="0.00" jamLengthInVehiclesSum="0" jamLengthInMetersSum="0.00" meanHaltingDuration="0.00" maxHaltingDuration="0.00" haltingDurationSum="0.00" meanIntervalHaltingDuration="0.00" maxIntervalHaltingDuration="0.00" intervalHaltingDurationSum="0.00" startedHalts="0.00" meanVehicleNumber="0.00" maxVehicleNumber="0" />
   <interval begin="144.00" end="168.00" id="3_2E" sampledSeconds="65.11" nVehEntered="2" nVehLeft="0" nVehSeen="3" meanSpeed="7.79" meanTimeLoss="11.57" meanOccupancy="6.88" maxOccupancy="7.50" meanMaxJamLengthInVehicles="1.08" meanMaxJamLengthInMeters="6.77" maxJamLengthInVehicles="3" maxJamLengthInMeters="20.03" jamLengthInVehiclesSum="26" jamLengthInMetersSum="162.54" meanHaltingDuration="9.67" maxHaltingDuration="14.00" haltingDurationSum="29.00" meanIntervalHaltingDuration="9.67" maxIntervalHaltingDuration="14.00" intervalHaltingDurationSum="29.00" startedHalts="3.00" meanVehicleNumber="2.75" maxVehicleNumber="3" />
   <interval begin="144.00" end="168.00" id="3_3S" sampledSeconds="432.17" nVehEntered="2" nVehLeft="0" nVehSeen="19" meanSpeed="0.42" meanTimeLoss="22.17" meanOccupancy="45.10" maxOccupancy="47.50" meanMaxJamLengthInVehicles="17.25" meanMaxJamLengthInMeters="126.90" maxJamLengthInVehicles="18" maxJamLengthInMeters="132.55" jamLengthInVehiclesSum="414" jamLengthInMetersSum="3045.56" meanHaltingDuration="80.33" maxHaltingDuration="130.00" haltingDurationSum="1446.00" meanIntervalHaltingDuration="23.11" maxIntervalHaltingDuration="24.00" intervalHaltingDurationSum="416.00" startedHalts="2.00" meanVehicleNumber="18.04" maxVehicleNumber="19" />
   <interval begin="165.00" end="305.00" id="0_0W" sampledSeconds="2732.79" nVehEntered="20" nVehLeft="0" nVehSeen="27" meanSpeed="0.60" meanTimeLoss="97.54" meanOccupancy="48.76" maxOccupancy="66.99" meanMaxJamLengthInVehicles="18.24" meanMaxJamLengthInMeters="134.07" maxJamLengthInVehicles="27" maxJamLengthInMeters="199.00" jamLengthInVehiclesSum="2554" jamLengthInMetersSum="18770.03" meanHaltingDuration="97.26" maxHaltingDuration="159.00" haltingDurationSum="2626.00" meanIntervalHaltingDuration="95.44" maxIntervalHaltingDuration="140.00" intervalHaltingDurationSum="2577.00" startedHalts="23.00" meanVehicleNumber="19.59" maxVehicleNumber="27" />
   <interval begin="165.00" end="305.00" id="0_1N" sampledSeconds="677.28" nVehEntered="19" nVehLeft="32" nVehSeen="34" meanSpeed="6.74" meanTimeLoss="11.87" meanOccupancy="11.75" maxOccupancy="38.78" meanMaxJamLengthInVehicles="1.24" meanMaxJamLengthInMeters="9.12" maxJamLengthInVehicles="15" maxJamLengthInMeters="111.83" jamLengthInVehiclesSum="173" jamLengthInMetersSum="1276.55" meanHaltingDuration="54.89" maxHaltingDuration="133.00" haltingDurationSum="1043.00" meanIntervalHaltingDuration="9.31" maxIntervalHaltingDuration="19.00" intervalHaltingDurationSum="177.00" startedHalts="4.00" meanVehicleNumber="5.04" maxVehicleNumber="16" />
   <interval begin="165.00" end="305.00" id="0_2E" sampledSeconds="700.00" nVehEntered="0" nVehLeft="0" nVehSeen="5" meanSpeed="0.00" meanTimeLoss="140.00" meanOccupancy="12.50" maxOccupancy="12.50" meanMaxJamLengthInVehicles="5.00" meanMaxJamLengthInMeters="35.00" maxJamLengthInVehicles="5" maxJamLengthInMeters="35.01" jamLengthInVehiclesSum="700" jamLengthInMetersSum="4900.58" meanHaltingDuration="151.00" maxHaltingDuration="160.00" haltingDurationSum="755.00" meanIntervalHaltingDuration="140.00" maxIntervalHaltingDuration="140.00" intervalHaltingDurationSum="700.00" startedHalts="0.00" meanVehicleNumber="5.00" maxVehicleNumber="5" />
   <interval begin="165.00" end="305.00" id="0_3S" sampledSeconds="402.84" nVehEntered="30" nVehLeft="29" nVehSeen="30" meanSpeed="15.02" meanTimeLoss="1.23" meanOccupancy="7.00" maxOccupancy="22.01" meanMaxJamLengthInVehicles="0.00" meanMaxJamLengthInMeters="0.00" maxJamLengthInVehicles="0" maxJamLengthInMeters="0.00" jamLengthInVehiclesSum="0" jamLengthInMetersSum="0.00" meanHaltingDuration="0.00" maxHaltingDuration="0.00" haltingDurationSum="0.00" meanIntervalHaltingDuration="0.00" maxIntervalHaltingDuration="0.00" intervalHaltingDurationSum="0.00" startedHalts="0.00" meanVehicleNumber="3.08" maxVehicleNumber="9" />
   <interval begin="166.00" end="306.00" id="1_0W" sampledSeconds="560.00" nVehEntered="0" nVehLeft="0" nVehSeen="4" meanSpeed="0.00" meanTimeLoss="140.00" meanOccupancy="10.00" maxOccupancy="10.00" meanMaxJamLengthInVehicles="4.00" meanMaxJamLengthInMeters="27.50" maxJamLengthInVehicles="4" maxJamLengthInMeters="27.50" jamLengthInVehiclesSum="560" jamLengthInMetersSum="3850.43" meanHaltingDuration="150.25" maxHaltingDuration="157.00" haltingDurationSum="601.00" meanIntervalHaltingDuration="140.00" maxIntervalHaltingDuration="140.00" intervalHaltingDurationSum="560.00" startedHalts="0.00" meanVehicleNumber="4.00" maxVehicleNumber="4" />
   <interval begin="166.00" end="306.00" id="1_1N" sampledSeconds="327.38" nVehEntered="10" nVehLeft="20" nVehSeen="21" meanSpeed="7.57" meanTimeLoss="8.51" meanOccupancy="5.61" maxOccupancy="27.50" meanMaxJamLengthInVehicles="0.56" meanMaxJamLengthInMeters="4.12" maxJamLengthInVehicles="10" maxJamLengthInMeters="74.34" jamLengthInVehiclesSum="79" jamLengthInMetersSum="576.61" meanHaltingDuration="80.91" maxHaltingDuration="135.00" haltingDurationSum="890.00" meanIntervalHaltingDuration="7.27" maxIntervalHaltingDuration="13.00" intervalHaltingDurationSum="80.00" startedHalts="1.00" meanVehicleNumber="2.44" maxVehicleNumber="11" />
   <interval begin="166.00" end="306.00" id="1_2E" sampledSeconds="2774.88" nVehEntered="20" nVehLeft="0" nVehSeen="27" meanSpeed="0.60" meanTimeLoss="99.10" meanOccupancy="49.50" maxOccupancy="66.99" meanMaxJamLengthInVehicles="18.54" meanMaxJamLengthInMeters="136.31" maxJamLengthInVehicles="27" maxJamLengthInMeters="199.00" jamLengthInVehiclesSum="2596" jamLengthInMetersSum="19083.17" meanHaltingDuration="98.89" maxHaltingDuration="160.00" haltingDurationSum="2670.00" meanIntervalHaltingDuration="96.96" maxIntervalHaltingDuration="140.00" intervalHaltingDurationSum="2618.00" startedHalts="22.00" meanVehicleNumber="19.90" maxVehicleNumber="27" />
   <interval begin="166.00" end="306.00" id="1_3S" sampledSeconds="390.60" nVehEntered="31" nVehLeft="28" nVehSeen="31" meanSpeed="15.35" meanTimeLoss="0.90" meanOccupancy="6.81" maxOccupancy="21.13" meanMaxJamLengthInVehicles="0.00" meanMaxJamLengthInMeters="0.00" maxJamLengthInVehicles="0" maxJamLengthInMeters="0.00" jamLengthInVehiclesSum="0" jamLengthInMetersSum="0.00" meanHaltingDuration="0.00" maxHaltingDuration="0.00" haltingDurationSum="0.00" meanIntervalHaltingDuration="0.00" maxIntervalHaltingDuration="0.00" intervalHaltingDurationSum="0.00" startedHalts="0.00" meanVehicleNumber="3.01" maxVehicleNumber="9" />
   <interval begin="167.00" end="307.00" id="2_0W" sampledSeconds="420.00" nVehEntered="0" nVehLeft="0" nVehSeen="3" meanSpeed="0.02" meanTimeLoss="139.82" meanOccupancy="7.50" maxOccupancy="7.50" meanMaxJamLengthInVehicles="2.98" meanMaxJamLengthInMeters="19.84" maxJamLengthInVehicles="3" maxJamLengthInMeters="20.00" jamLengthInVehiclesSum="417" jamLengthInMetersSum="2777.80" meanHaltingDuration="148.33" maxHaltingDuration="160.00" haltingDurationSum="445.00" meanIntervalHaltingDuration="139.33" maxIntervalHaltingDuration="140.00" intervalHaltingDurationSum="418.00" startedHalts="1.00" meanVehicleNumber="3.00" maxVehicleNumber="3" />
   <interval begin="167.00" end="307.00" id="2_1N" sampledSeconds="237.76" nVehEntered="18" nVehLeft="18" nVehSeen="18" meanSpeed="15.52" meanTimeLoss="0.80" meanOccupancy="4.14" maxOccupancy="20.00" meanMaxJamLengthInVehicles="0.00" meanMaxJamLengthInMeters="0.00" maxJamLengthInVehicles="0" maxJamLengthInMeters="0.00" jamLengthInVehiclesSum="0" jamLengthInMetersSum="0.00" meanHaltingDuration="0.00" maxHaltingDuration="0.00" haltingDurationSum="0.00" meanIntervalHaltingDuration="0.00" maxIntervalHaltingDuration="0.00" intervalHaltingDurationSum="0.00" startedHalts="0.00" meanVehicleNumber="1.84" maxVehicleNumber="9" />
   <interval begin="167.00" end="307.00" id="2_2E" sampledSeconds="2502.09" nVehEntered="21" nVehLeft="0" nVehSeen="27" meanSpeed="0.75" meanTimeLoss="88.49" meanOccupancy="44.67" maxOccupancy="66.99" meanMaxJamLengthInVehicles="16.46" meanMaxJamLengthInMeters="120.81" maxJamLengthInVehicles="27" maxJamLengthInMeters="199.00" jamLengthInVehiclesSum="2305" jamLengthInMetersSum="16913.73" meanHaltingDuration="87.04" maxHaltingDuration="152.00" haltingDurationSum="2350.00" meanIntervalHaltingDuration="86.26" maxIntervalHaltingDuration="140.00" intervalHaltingDurationSum="2329.00" startedHalts="24.00" meanVehicleNumber="17.94" maxVehicleNumber="27" />
   <interval begin="167.00" end="307.00" id="2_3S" sampledSeconds="679.62" nVehEntered="15" nVehLeft="32" nVehSeen="32" meanSpeed="6.18" meanTimeLoss="13.37" meanOccupancy="11.76" maxOccupancy="42.50" meanMaxJamLengthInVehicles="1.56" meanMaxJamLengthInMeters="11.58" maxJamLengthInVehicles="17" maxJamLengthInMeters="125.68" jamLengthInVehiclesSum="219" jamLengthInMetersSum="1621.62" meanHaltingDuration="67.84" maxHaltingDuration="112.00" haltingDurationSum="1289.00" meanIntervalHaltingDuration="11.63" maxIntervalHaltingDuration="23.00" intervalHaltingDurationSum="221.00" startedHalts="2.00" meanVehicleNumber="5.02" maxVehicleNumber="17" />
   <interval begin="168.00" end="308.00" id="3_0W" sampledSeconds="2272.97" nVehEntered="19" nVehLeft="0" nVehSeen="25" meanSpeed="0.83" meanTimeLoss="86.37" meanOccupancy="40.68" maxOccupancy="62.50" meanMaxJamLengthInVehicles="14.84" meanMaxJamLengthInMeters="108.79" maxJamLengthInVehicles="24" maxJamLengthInMeters="177.62" jamLengthInVehiclesSum="2077" jamLengthInMetersSum="15230.01" meanHaltingDuration="85.00" maxHaltingDuration="154.00" haltingDurationSum="2125.00" meanIntervalHaltingDuration="83.96" maxIntervalHaltingDuration="140.00" intervalHaltingDurationSum="2099.00" startedHalts="22.00" meanVehicleNumber="16.31" maxVehicleNumber="25" />