<?xml version="1.0" encoding="UTF-8"?>

<!-- generated on Fri Mar 30 03:50:30 2018 by SUMO Version 0.32.0
<?xml version="1.0" encoding="UTF-8"?>

<configuration xmlns:xsi="http://www.w3.org/2001/XMLSchema-instance" xsi:noNamespaceSchemaLocation="http://sumo.dlr.de/xsd/sumoConfiguration.xsd">

    <input>
        <net-file value="data/single/cross.net.xml"/>
        <route-files value="data/single/cross.rou.xml"/>
        <additional-files value="data/single/cross.det.xml,data/single/cross.det2.xml"/>
    </input>

    <output>
        <tripinfo-output value="dql_episode19_tripinfo.xml"/>
    </output>

    <time>
        <begin value="0"/>
    </time>

    <report>
        <verbose value="true"/>
        <error-log value="errors"/>
        <no-step-log value="true"/>
    </report>

    <traci_server>
        <remote-port value="54921"/>
    </traci_server>

</configuration>
-->

<detector xmlns:xsi="http://www.w3.org/2001/XMLSchema-instance" xsi:noNamespaceSchemaLocation="http://sumo.dlr.de/xsd/det_e2_file.xsd">
   <interval begin="0.00" end="1.00" id="1W" sampledSeconds="0.00" nVehEntered="0" nVehLeft="0" nVehSeen="0" meanSpeed="-1.00" meanTimeLoss="-1.00" meanOccupancy="0.00" maxOccupancy="0.00" meanMaxJamLengthInVehicles="0.00" meanMaxJamLengthInMeters="0.00" maxJamLengthInVehicles="0" maxJamLengthInMeters="0.00" jamLengthInVehiclesSum="0" jamLengthInMetersSum="0.00" meanHaltingDuration="0.00" maxHaltingDuration="0.00" haltingDurationSum="0.00" meanIntervalHaltingDuration="0.00" maxIntervalHaltingDuration="0.00" intervalHaltingDurationSum="0.00" startedHalts="0.00" meanVehicleNumber="0.00" maxVehicleNumber="0" />
   <interval begin="0.00" end="1.00" id="2E" sampledSeconds="0.00" nVehEntered="0" nVehLeft="0" nVehSeen="0" meanSpeed="-1.00" meanTimeLoss="-1.00" meanOccupancy="0.00" maxOccupancy="0.00" meanMaxJamLengthInVehicles="0.00" meanMaxJamLengthInMeters="0.00" maxJamLengthInVehicles="0" maxJamLengthInMeters="0.00" jamLengthInVehiclesSum="0" jamLengthInMetersSum="0.00" meanHaltingDuration="0.00" maxHaltingDuration="0.00" haltingDurationSum="0.00" meanIntervalHaltingDuration="0.00" maxIntervalHaltingDuration="0.00" intervalHaltingDurationSum="0.00" startedHalts="0.00" meanVehicleNumber="0.00" maxVehicleNumber="0" />
   <interval begin="0.00" end="1.00" id="3S" sampledSeconds="0.00" nVehEntered="0" nVehLeft="0" nVehSeen="0" meanSpeed="-1.00" meanTimeLoss="-1.00" meanOccupancy="0.00" maxOccupancy="0.00" meanMaxJamLengthInVehicles="0.00" meanMaxJamLengthInMeters="0.00" maxJamLengthInVehicles="0" maxJamLengthInMeters="0.00" jamLengthInVehiclesSum="0" jamLengthInMetersSum="0.00" meanHaltingDuration="0.00" maxHaltingDuration="0.00" haltingDurationSum="0.00" meanIntervalHaltingDuration="0.00" maxIntervalHaltingDuration="0.00" intervalHaltingDurationSum="0.00" startedHalts="0.00" meanVehicleNumber="0.00" maxVehicleNumber="0" />
   <interval begin="0.00" end="1.00" id="4N" sampledSeconds="0.00" nVehEntered="0" nVehLeft="0" nVehSeen="0" meanSpeed="-1.00" meanTimeLoss="-1.00" meanOccupancy="0.00" maxOccupancy="0.00" meanMaxJamLengthInVehicles="0.00" meanMaxJamLengthInMeters="0.00" maxJamLengthInVehicles="0" maxJamLengthInMeters="0.00" jamLengthInVehiclesSum="0" jamLengthInMetersSum="0.00" meanHaltingDuration="0.00" maxHaltingDuration="0.00" haltingDurationSum="0.00" meanIntervalHaltingDuration="0.00" maxIntervalHaltingDuration="0.00" intervalHaltingDurationSum="0.00" startedHalts="0.00" meanVehicleNumber="0.00" maxVehicleNumber="0" />
   <interval begin="1.00" end="85.00" id="1W" sampledSeconds="122.42" nVehEntered="11" nVehLeft="8" nVehSeen="11" meanSpeed="16.32" meanTimeLoss="0.16" meanOccupancy="3.57" maxOccupancy="7.50" meanMaxJamLengthInVehicles="0.00" meanMaxJamLengthInMeters="0.00" maxJamLengthInVehicles="0" maxJamLengthInMeters="0.00" jamLengthInVehiclesSum="0" jamLengthInMetersSum="0.00" meanHaltingDuration="0.00" maxHaltingDuration="0.00" haltingDurationSum="0.00" meanIntervalHaltingDuration="0.00" maxIntervalHaltingDuration="0.00" intervalHaltingDurationSum="0.00" startedHalts="0.00" meanVehicleNumber="1.55" maxVehicleNumber="3" />
   <interval begin="1.00" end="85.00" id="2E" sampledSeconds="122.94" nVehEntered="11" nVehLeft="9" nVehSeen="11" meanSpeed="16.22" meanTimeLoss="0.21" meanOccupancy="3.61" maxOccupancy="7.50" meanMaxJamLengthInVehicles="0.00" meanMaxJamLengthInMeters="0.00" maxJamLengthInVehicles="0" maxJamLengthInMeters="0.00" jamLengthInVehiclesSum="0" jamLengthInMetersSum="0.00" meanHaltingDuration="0.00" maxHaltingDuration="0.00" haltingDurationSum="0.00" meanIntervalHaltingDuration="0.00" maxIntervalHaltingDuration="0.00" intervalHaltingDurationSum="0.00" startedHalts="0.00" meanVehicleNumber="1.62" maxVehicleNumber="3" />
   <interval begin="1.00" end="85.00" id="3S" sampledSeconds="0.00" nVehEntered="0" nVehLeft="0" nVehSeen="0" meanSpeed="-1.00" meanTimeLoss="-1.00" meanOccupancy="0.00" maxOccupancy="0.00" meanMaxJamLengthInVehicles="0.00" meanMaxJamLengthInMeters="0.00" maxJamLengthInVehicles="0" maxJamLengthInMeters="0.00" jamLengthInVehiclesSum="0" jamLengthInMetersSum="0.00" meanHaltingDuration="0.00" maxHaltingDuration="0.00" haltingDurationSum="0.00" meanIntervalHaltingDuration="0.00" maxIntervalHaltingDuration="0.00" intervalHaltingDurationSum="0.00" startedHalts="0.00" meanVehicleNumber="0.00" maxVehicleNumber="0" />
   <interval begin="1.00" end="85.00" id="4N" sampledSeconds="106.49" nVehEntered="4" nVehLeft="0" nVehSeen="4" meanSpeed="7.05" meanTimeLoss="15.36" meanOccupancy="3.21" maxOccupancy="10.00" meanMaxJamLengthInVehicles="0.61" meanMaxJamLengthInMeters="3.72" maxJamLengthInVehicles="3" maxJamLengthInMeters="20.03" jamLengthInVehiclesSum="51" jamLengthInMetersSum="312.60" meanHaltingDuration="13.75" maxHaltingDuration="29.00" haltingDurationSum="55.00" meanIntervalHaltingDuration="13.75" maxIntervalHaltingDuration="29.00" intervalHaltingDurationSum="55.00" startedHalts="4.00" meanVehicleNumber="1.29" maxVehicleNumber="4" />
   <interval begin="85.00" end="90.00" id="1W" sampledSeconds="12.74" nVehEntered="1" nVehLeft="1" nVehSeen="4" meanSpeed="15.07" meanTimeLoss="0.30" meanOccupancy="6.15" maxOccupancy="7.50" meanMaxJamLengthInVehicles="0.00" meanMaxJamLengthInMeters="0.00" maxJamLengthInVehicles="0" maxJamLengthInMeters="0.00" jamLengthInVehiclesSum="0" jamLengthInMetersSum="0.00" meanHaltingDuration="0.00" maxHaltingDuration="0.00" haltingDurationSum="0.00" meanIntervalHaltingDuration="0.00" maxIntervalHaltingDuration="0.00" intervalHaltingDurationSum="0.00" startedHalts="0.00" meanVehicleNumber="2.80" maxVehicleNumber="3" />
   <interval begin="85.00" end="90.00" id="2E" sampledSeconds="12.04" nVehEntered="1" nVehLeft="0" nVehSeen="3" meanSpeed="15.62" meanTimeLoss="0.25" meanOccupancy="6.07" maxOccupancy="7.50" meanMaxJamLengthInVehicles="0.00" meanMaxJamLengthInMeters="0.00" maxJamLengthInVehicles="0" maxJamLengthInMeters="0.00" jamLengthInVehiclesSum="0" jamLengthInMetersSum="0.00" meanHaltingDuration="0.00" maxHaltingDuration="0.00" haltingDurationSum="0.00" meanIntervalHaltingDuration="0.00" maxIntervalHaltingDuration="0.00" intervalHaltingDurationSum="0.00" startedHalts="0.00" meanVehicleNumber="2.60" maxVehicleNumber="3" />
   <interval begin="85.00" end="90.00" id="3S" sampledSeconds="0.00" nVehEntered="0" nVehLeft="0" nVehSeen="0" meanSpeed="-1.00" meanTimeLoss="-1.00" meanOccupancy="0.00" maxOccupancy="0.00" meanMaxJamLengthInVehicles="0.00" meanMaxJamLengthInMeters="0.00" maxJamLengthInVehicles="0" maxJamLengthInMeters="0.00" jamLengthInVehiclesSum="0" jamLengthInMetersSum="0.00" meanHaltingDuration="0.00" maxHaltingDuration="0.00" haltingDurationSum="0.00" meanIntervalHaltingDuration="0.00" maxIntervalHaltingDuration="0.00" intervalHaltingDurationSum="0.00" startedHalts="0.00" meanVehicleNumber="0.00" maxVehicleNumber="0" />
   <interval begin="85.00" end="90.00" id="4N" sampledSeconds="20.00" nVehEntered="0" nVehLeft="0" nVehSeen="4" meanSpeed="0.00" meanTimeLoss="5.00" meanOccupancy="10.00" maxOccupancy="10.00" meanMaxJamLengthInVehicles="4.00" meanMaxJamLengthInMeters="27.50" maxJamLengthInVehicles="4" maxJamLengthInMeters="27.50" jamLengthInVehiclesSum="20" jamLengthInMetersSum="137.52" meanHaltingDuration="18.75" maxHaltingDuration="34.00" haltingDurationSum="75.00" meanIntervalHaltingDuration="5.00" maxIntervalHaltingDuration="5.00" intervalHaltingDurationSum="20.00" startedHalts="0.00" meanVehicleNumber="4.00" maxVehicleNumber="4" />
   <interval begin="90.00" end="102.00" id="1W" sampledSeconds="47.52" nVehEntered="2" nVehLeft="0" nVehSeen="5" meanSpeed="8.81" meanTimeLoss="4.48" meanOccupancy="10.10" maxOccupancy="12.50" meanMaxJamLengthInVehicles="1.25" meanMaxJamLengthInMeters="7.29" maxJamLengthInVehicles="2" maxJamLengthInMeters="12.50" jamLengthInVehiclesSum="15" jamLengthInMetersSum="87.51" meanHaltingDuration="6.00" maxHaltingDuration="11.00" haltingDurationSum="18.00" meanIntervalHaltingDuration="6.00" maxIntervalHaltingDuration="11.00" intervalHaltingDurationSum="18.00" startedHalts="3.00" meanVehicleNumber="4.08" maxVehicleNumber="5" />
   <interval begin="90.00" end="102.00" id="2E" sampledSeconds="48.81" nVehEntered="2" nVehLeft="0" nVehSeen="5" meanSpeed="9.15" meanTimeLoss="4.40" meanOccupancy="10.27" maxOccupancy="12.50" meanMaxJamLengthInVehicles="1.25" meanMaxJamLengthInMeters="7.30" maxJamLengthInVehicles="2" maxJamLengthInMeters="12.56" jamLengthInVehiclesSum="15" jamLengthInMetersSum="87.58" meanHaltingDuration="6.00" maxHaltingDuration="11.00" haltingDurationSum="18.00" meanIntervalHaltingDuration="6.00" maxIntervalHaltingDuration="11.00" intervalHaltingDurationSum="18.00" startedHalts="3.00" meanVehicleNumber="4.17" maxVehicleNumber="5" />
   <interval begin="90.00" end="102.00" id="3S" sampledSeconds="0.00" nVehEntered="0" nVehLeft="0" nVehSeen="0" meanSpeed="-1.00" meanTimeLoss="-1.00" meanOccupancy="0.00" maxOccupancy="0.00" meanMaxJamLengthInVehicles="0.00" meanMaxJamLengthInMeters="0.00" maxJamLengthInVehicles="0" maxJamLengthInMeters="0.00" jamLengthInVehiclesSum="0" jamLengthInMetersSum="0.00" meanHaltingDuration="0.00" maxHaltingDuration="0.00" haltingDurationSum="0.00" meanIntervalHaltingDuration="0.00" maxIntervalHaltingDuration="0.00" intervalHaltingDurationSum="0.00" startedHalts="0.00" meanVehicleNumber="0.00" maxVehicleNumber="0" />
   <interval begin="90.00" end="102.00" id="4N" sampledSeconds="45.70" nVehEntered="1" nVehLeft="3" nVehSeen="5" meanSpeed="5.26" meanTimeLoss="6.24" meanOccupancy="8.76" maxOccupancy="12.50" meanMaxJamLengthInVehicles="1.33" meanMaxJamLengthInMeters="9.31" maxJamLengthInVehicles="4" maxJamLengthInMeters="29.55" jamLengthInVehiclesSum="16" jamLengthInMetersSum="111.74" meanHaltingDuration="22.75" maxHaltingDuration="36.00" haltingDurationSum="91.00" meanIntervalHaltingDuration="4.00" maxIntervalHaltingDuration="6.00" intervalHaltingDurationSum="16.00" startedHalts="0.00" meanVehicleNumber="3.92" maxVehicleNumber="5" />
   <interval begin="102.00" end="107.00" id="1W" sampledSeconds="28.30" nVehEntered="1" nVehLeft="0" nVehSeen="6" meanSpeed="6.18" meanTimeLoss="2.97" meanOccupancy="14.49" maxOccupancy="15.00" meanMaxJamLengthInVehicles="3.00" meanMaxJamLengthInMeters="20.00" maxJamLengthInVehicles="3" maxJamLengthInMeters="20.01" jamLengthInVehiclesSum="15" jamLengthInMetersSum="100.02" meanHaltingDuration="8.50" maxHaltingDuration="16.00" haltingDurationSum="34.00" meanIntervalHaltingDuration="4.00" maxIntervalHaltingDuration="5.00" intervalHaltingDurationSum="16.00" startedHalts="1.00" meanVehicleNumber="5.80" maxVehicleNumber="6" />
   <interval begin="102.00" end="107.00" id="2E" sampledSeconds="29.56" nVehEntered="1" nVehLeft="0" nVehSeen="6" meanSpeed="5.94" meanTimeLoss="3.17" meanOccupancy="15.00" maxOccupancy="15.00" meanMaxJamLengthInVehicles="3.20" meanMaxJamLengthInMeters="21.50" maxJamLengthInVehicles="4" maxJamLengthInMeters="27.51" jamLengthInVehiclesSum="16" jamLengthInMetersSum="107.52" meanHaltingDuration="8.75" maxHaltingDuration="16.00" haltingDurationSum="35.00" meanIntervalHaltingDuration="4.25" maxIntervalHaltingDuration="5.00" intervalHaltingDurationSum="17.00" startedHalts="1.00" meanVehicleNumber="6.00" maxVehicleNumber="6" />
   <interval begin="102.00" end="107.00" id="3S" sampledSeconds="0.00" nVehEntered="0" nVehLeft="0" nVehSeen="0" meanSpeed="-1.00" meanTimeLoss="-1.00" meanOccupancy="0.00" maxOccupancy="0.00" meanMaxJamLengthInVehicles="0.00" meanMaxJamLengthInMeters="0.00" maxJamLengthInVehicles="0" maxJamLengthInMeters="0.00" jamLengthInVehiclesSum="0" jamLengthInMetersSum="0.00" meanHaltingDuration="0.00" maxHaltingDuration="0.00" haltingDurationSum="0.00" meanIntervalHaltingDuration="0.00" maxIntervalHaltingDuration="0.00" intervalHaltingDurationSum="0.00" startedHalts="0.00" meanVehicleNumber="0.00" maxVehicleNumber="0" />
   <interval begin="102.00" end="107.00" id="4N" sampledSeconds="10.16" nVehEntered="1" nVehLeft="0" nVehSeen="3" meanSpeed="1.64" meanTimeLoss="3.06" meanOccupancy="5.27" maxOccupancy="6.35" meanMaxJamLengthInVehicles="1.00" meanMaxJamLengthInMeters="6.01" maxJamLengthInVehicles="2" maxJamLengthInMeters="12.57" jamLengthInVehiclesSum="5" jamLengthInMetersSum="30.07" meanHaltingDuration="3.50" maxHaltingDuration="4.00" haltingDurationSum="7.00" meanIntervalHaltingDuration="3.50" maxIntervalHaltingDuration="4.00" intervalHaltingDurationSum="7.00" startedHalts="2.00" meanVehicleNumber="2.20" maxVehicleNumber="3" />
   <interval begin="107.00" end="131.00" id="1W" sampledSeconds="121.54" nVehEntered="5" nVehLeft="8" nVehSeen="11" meanSpeed="8.48" meanTimeLoss="5.40" meanOccupancy="11.91" maxOccupancy="17.05" meanMaxJamLengthInVehicles="0.67" meanMaxJamLengthInMeters="4.66" maxJamLengthInVehicles="4" maxJamLengthInMeters="29.41" jamLengthInVehiclesSum="16" jamLengthInMetersSum="111.93" meanHaltingDuration="10.20" maxHaltingDuration="18.00" haltingDurationSum="51.00" meanIntervalHaltingDuration="3.40" maxIntervalHaltingDuration="6.00" intervalHaltingDurationSum="17.00" startedHalts="1.00" meanVehicleNumber="5.33" maxVehicleNumber="7" />
   <interval begin="107.00" end="131.00" id="2E" sampledSeconds="122.35" nVehEntered="5" nVehLeft="8" nVehSeen="11" meanSpeed="8.24" meanTimeLoss="5.59" meanOccupancy="12.10" maxOccupancy="16.88" meanMaxJamLengthInVehicles="0.62" meanMaxJamLengthInMeters="4.32" maxJamLengthInVehicles="4" maxJamLengthInMeters="28.26" jamLengthInVehiclesSum="15" jamLengthInMetersSum="103.78" meanHaltingDuration="10.20" maxHaltingDuration="17.00" haltingDurationSum="51.00" meanIntervalHaltingDuration="3.20" maxIntervalHaltingDuration="6.00" intervalHaltingDurationSum="16.00" startedHalts="1.00" meanVehicleNumber="5.33" maxVehicleNumber="7" />
   <interval begin="107.00" end="131.00" id="3S" sampledSeconds="0.00" nVehEntered="0" nVehLeft="0" nVehSeen="0" meanSpeed="-1.00" meanTimeLoss="-1.00" meanOccupancy="0.00" maxOccupancy="0.00" meanMaxJamLengthInVehicles="0.00" meanMaxJamLengthInMeters="0.00" maxJamLengthInVehicles="0" maxJamLengthInMeters="0.00" jamLengthInVehiclesSum="0" jamLengthInMetersSum="0.00" meanHaltingDuration="0.00" maxHaltingDuration="0.00" haltingDurationSum="0.00" meanIntervalHaltingDuration="0.00" maxIntervalHaltingDuration="0.00" intervalHaltingDurationSum="0.00" startedHalts="0.00" meanVehicleNumber="0.00" maxVehicleNumber="0" />
   <interval begin="107.00" end="131.00" id="4N" sampledSeconds="90.95" nVehEntered="1" nVehLeft="0" nVehSeen="4" meanSpeed="3.93" meanTimeLoss="17.37" meanOccupancy="9.48" maxOccupancy="10.00" meanMaxJamLengthInVehicles="2.67" meanMaxJamLengthInMeters="17.50" maxJamLengthInVehicles="4" maxJamLengthInMeters="27.51" jamLengthInVehiclesSum="64" jamLengthInMetersSum="420.07" meanHaltingDuration="18.25" maxHaltingDuration="28.00" haltingDurationSum="73.00" meanIntervalHaltingDuration="16.50" maxIntervalHaltingDuration="24.00" intervalHaltingDurationSum="66.00" startedHalts="2.00" meanVehicleNumber="3.79" maxVehicleNumber="4" />
   <interval begin="131.00" end="136.00" id="1W" sampledSeconds="12.56" nVehEntered="1" nVehLeft="1" nVehSeen="4" meanSpeed="15.70" meanTimeLoss="0.16" meanOccupancy="6.19" maxOccupancy="7.50" meanMaxJamLengthInVehicles="0.00" meanMaxJamLengthInMeters="0.00" maxJamLengthInVehicles="0" maxJamLengthInMeters="0.00" jamLengthInVehiclesSum="0" jamLengthInMetersSum="0.00" meanHaltingDuration="0.00" maxHaltingDuration="0.00" haltingDurationSum="0.00" meanIntervalHaltingDuration="0.00" maxIntervalHaltingDuration="0.00" intervalHaltingDurationSum="0.00" startedHalts="0.00" meanVehicleNumber="2.80" maxVehicleNumber="3" />
   <interval begin="131.00" end="136.00" id="2E" sampledSeconds="10.71" nVehEntered="1" nVehLeft="1" nVehSeen="4" meanSpeed="15.94" meanTimeLoss="0.08" meanOccupancy="5.50" maxOccupancy="7.50" meanMaxJamLengthInVehicles="0.00" meanMaxJamLengthInMeters="0.00" maxJamLengthInVehicles="0" maxJamLengthInMeters="0.00" jamLengthInVehiclesSum="0" jamLengthInMetersSum="0.00" meanHaltingDuration="0.00" maxHaltingDuration="0.00" haltingDurationSum="0.00" meanIntervalHaltingDuration="0.00" maxIntervalHaltingDuration="0.00" intervalHaltingDurationSum="0.00" startedHalts="0.00" meanVehicleNumber="2.40" maxVehicleNumber="3" />
   <interval begin="131.00" end="136.00" id="3S" sampledSeconds="0.00" nVehEntered="0" nVehLeft="0" nVehSeen="0" meanSpeed="-1.00" meanTimeLoss="-1.00" meanOccupancy="0.00" maxOccupancy="0.00" meanMaxJamLengthInVehicles="0.00" meanMaxJamLengthInMeters="0.00" maxJamLengthInVehicles="0" maxJamLengthInMeters="0.00" jamLengthInVehiclesSum="0" jamLengthInMetersSum="0.00" meanHaltingDuration="0.00" maxHaltingDuration="0.00" haltingDurationSum="0.00" meanIntervalHaltingDuration="0.00" maxIntervalHaltingDuration="0.00" intervalHaltingDurationSum="0.00" startedHalts="0.00" meanVehicleNumber="0.00" maxVehicleNumber="0" />
   <interval begin="131.00" end="136.00" id="4N" sampledSeconds="22.10" nVehEntered="1" nVehLeft="0" nVehSeen="5" meanSpeed="1.56" meanTimeLoss="4.01" meanOccupancy="11.16" maxOccupancy="12.50" meanMaxJamLengthInVehicles="4.00" meanMaxJamLengthInMeters="27.50" maxJamLengthInVehicles="4" maxJamLengthInMeters="27.50" jamLengthInVehiclesSum="20" jamLengthInMetersSum="137.52" meanHaltingDuration="23.25" maxHaltingDuration="33.00" haltingDurationSum="93.00" meanIntervalHaltingDuration="5.00" maxIntervalHaltingDuration="5.00" intervalHaltingDurationSum="20.00" startedHalts="0.00" meanVehicleNumber="4.60" maxVehicleNumber="5" />
   <interval begin="136.00" end="148.00" id="1W" sampledSeconds="48.63" nVehEntered="2" nVehLeft="0" nVehSeen="5" meanSpeed="9.48" meanTimeLoss="4.20" meanOccupancy="10.24" maxOccupancy="12.50" meanMaxJamLengthInVehicles="1.08" meanMaxJamLengthInMeters="6.46" maxJamLengthInVehicles="2" maxJamLengthInMeters="12.51" jamLengthInVehiclesSum="13" jamLengthInMetersSum="77.52" meanHaltingDuration="5.33" maxHaltingDuration="9.00" haltingDurationSum="16.00" meanIntervalHaltingDuration="5.33" maxIntervalHaltingDuration="9.00" intervalHaltingDurationSum="16.00" startedHalts="3.00" meanVehicleNumber="4.17" maxVehicleNumber="5" />
   <interval begin="136.00" end="148.00" id="2E" sampledSeconds="44.44" nVehEntered="2" nVehLeft="0" nVehSeen="5" meanSpeed="9.43" meanTimeLoss="3.86" meanOccupancy="9.45" maxOccupancy="12.50" meanMaxJamLengthInVehicles="1.08" meanMaxJamLengthInMeters="6.25" maxJamLengthInVehicles="2" maxJamLengthInMeters="12.50" jamLengthInVehiclesSum="13" jamLengthInMetersSum="75.01" meanHaltingDuration="7.50" maxHaltingDuration="10.00" haltingDurationSum="15.00" meanIntervalHaltingDuration="7.50" maxIntervalHaltingDuration="10.00" intervalHaltingDurationSum="15.00" startedHalts="2.00" meanVehicleNumber="3.83" maxVehicleNumber="5" />
   <interval begin="136.00" end="148.00" id="3S" sampledSeconds="0.00" nVehEntered="0" nVehLeft="0" nVehSeen="0" meanSpeed="-1.00" meanTimeLoss="-1.00" meanOccupancy="0.00" maxOccupancy="0.00" meanMaxJamLengthInVehicles="0.00" meanMaxJamLengthInMeters="0.00" maxJamLengthInVehicles="0" maxJamLengthInMeters="0.00" jamLengthInVehiclesSum="0" jamLengthInMetersSum="0.00" meanHaltingDuration="0.00" maxHaltingDuration="0.00" haltingDurationSum="0.00" meanIntervalHaltingDuration="0.00" maxIntervalHaltingDuration="0.00" intervalHaltingDurationSum="0.00" startedHalts="0.00" meanVehicleNumber="0.00" maxVehicleNumber="0" />
   <interval begin="136.00" end="148.00" id="4N" sampledSeconds="53.40" nVehEntered="1" nVehLeft="3" nVehSeen="6" meanSpeed="6.39" meanTimeLoss="5.47" meanOccupancy="10.37" maxOccupancy="12.50" meanMaxJamLengthInVehicles="1.17" meanMaxJamLengthInMeters="7.79" maxJamLengthInVehicles="4" maxJamLengthInMeters="28.25" jamLengthInVehiclesSum="14" jamLengthInMetersSum="93.46" meanHaltingDuration="26.75" maxHaltingDuration="35.00" haltingDurationSum="107.00" meanIntervalHaltingDuration="3.50" maxIntervalHaltingDuration="6.00" intervalHaltingDurationSum="14.00" startedHalts="0.00" meanVehicleNumber="4.58" maxVehicleNumber="5" />
   <interval begin="148.00" end="153.00" id="1W" sampledSeconds="27.99" nVehEntered="1" nVehLeft="0" nVehSeen="6" meanSpeed="5.69" meanTimeLoss="3.07" meanOccupancy="14.00" maxOccupancy="15.00" meanMaxJamLengthInVehicles="3.20" meanMaxJamLengthInMeters="21.52" maxJamLengthInVehicles="4" maxJamLengthInMeters="27.56" jamLengthInVehiclesSum="16" jamLengthInMetersSum="107.60" meanHaltingDuration="8.25" maxHaltingDuration="14.00" haltingDurationSum="33.00" meanIntervalHaltingDuration="4.25" maxIntervalHaltingDuration="5.00" intervalHaltingDurationSum="17.00" startedHalts="1.00" meanVehicleNumber="5.60" maxVehicleNumber="6" />
   <interval begin="148.00" end="153.00" id="2E" sampledSeconds="27.33" nVehEntered="1" nVehLeft="0" nVehSeen="6" meanSpeed="6.98" meanTimeLoss="2.65" meanOccupancy="14.00" maxOccupancy="15.00" meanMaxJamLengthInVehicles="2.80" meanMaxJamLengthInMeters="18.51" maxJamLengthInVehicles="3" maxJamLengthInMeters="20.02" jamLengthInVehiclesSum="14" jamLengthInMetersSum="92.53" meanHaltingDuration="10.00" maxHaltingDuration="15.00" haltingDurationSum="30.00" meanIntervalHaltingDuration="5.00" maxIntervalHaltingDuration="5.00" intervalHaltingDurationSum="15.00" startedHalts="1.00" meanVehicleNumber="5.60" maxVehicleNumber="6" />
   <interval begin="148.00" end="153.00" id="3S" sampledSeconds="0.00" nVehEntered="0" nVehLeft="0" nVehSeen="0" meanSpeed="-1.00" meanTimeLoss="-1.00" meanOccupancy="0.00" maxOccupancy="0.00" meanMaxJamLengthInVehicles="0.00" meanMaxJamLengthInMeters="0.00" maxJamLengthInVehicles="0" maxJamLengthInMeters="0.00" jamLengthInVehiclesSum="0" jamLengthInMetersSum="0.00" meanHaltingDuration="0.00" maxHaltingDuration="0.00" haltingDurationSum="0.00" meanIntervalHaltingDuration="0.00" maxIntervalHaltingDuration="0.00" intervalHaltingDurationSum="0.00" startedHalts="0.00" meanVehicleNumber="0.00" maxVehicleNumber="0" />
   <interval begin="148.00" end="153.00" id="4N" sampledSeconds="18.15" nVehEntered="1" nVehLeft="0" nVehSeen="4" meanSpeed="6.28" meanTimeLoss="2.83" meanOccupancy="9.24" maxOccupancy="10.00" meanMaxJamLengthInVehicles="1.00" meanMaxJamLengthInMeters="6.01" maxJamLengthInVehicles="2" maxJamLengthInMeters="12.53" jamLengthInVehiclesSum="5" jamLengthInMetersSum="30.04" meanHaltingDuration="3.50" maxHaltingDuration="4.00" haltingDurationSum="7.00" meanIntervalHaltingDuration="3.50" maxIntervalHaltingDuration="4.00" intervalHaltingDurationSum="7.00" startedHalts="2.00" meanVehicleNumber="3.80" maxVehicleNumber="4" />
   <interval begin="153.00" end="177.00" id="1W" sampledSeconds="121.37" nVehEntered="5" nVehLeft="8" nVehSeen="11" meanSpeed="8.53" meanTimeLoss="5.36" meanOccupancy="12.04" maxOccupancy="16.24" meanMaxJamLengthInVehicles="0.71" meanMaxJamLengthInMeters="4.80" maxJamLengthInVehicles="4" maxJamLengthInMeters="29.13" jamLengthInVehiclesSum="17" jamLengthInMetersSum="115.11" meanHaltingDuration="10.20" maxHaltingDuration="16.00" haltingDurationSum="51.00" meanIntervalHaltingDuration="3.60" maxIntervalHaltingDuration="5.00" intervalHaltingDurationSum="18.00" startedHalts="1.00" meanVehicleNumber="5.29" maxVehicleNumber="7" />
   <interval begin="153.00" end="177.00" id="2E" sampledSeconds="128.09" nVehEntered="5" nVehLeft="8" nVehSeen="11" meanSpeed="8.41" meanTimeLoss="5.74" meanOccupancy="12.64" maxOccupancy="16.75" meanMaxJamLengthInVehicles="0.75" meanMaxJamLengthInMeters="5.09" maxJamLengthInVehicles="4" maxJamLengthInMeters="30.02" jamLengthInVehiclesSum="18" jamLengthInMetersSum="122.25" meanHaltingDuration="10.00" maxHaltingDuration="18.00" haltingDurationSum="50.00" meanIntervalHaltingDuration="4.00" maxIntervalHaltingDuration="5.00" intervalHaltingDurationSum="20.00" startedHalts="2.00" meanVehicleNumber="5.58" maxVehicleNumber="7" />
   <interval begin="153.00" end="177.00" id="3S" sampledSeconds="0.00" nVehEntered="0" nVehLeft="0" nVehSeen="0" meanSpeed="-1.00" meanTimeLoss="-1.00" meanOccupancy="0.00" maxOccupancy="0.00" meanMaxJamLengthInVehicles="0.00" meanMaxJamLengthInMeters="0.00" maxJamLengthInVehicles="0" maxJamLengthInMeters="0.00" jamLengthInVehiclesSum="0" jamLengthInMetersSum="0.00" meanHaltingDuration="0.00" maxHaltingDuration="0.00" haltingDurationSum="0.00" meanIntervalHaltingDuration="0.00" maxIntervalHaltingDuration="0.00" intervalHaltingDurationSum="0.00" startedHalts="0.00" meanVehicleNumber="0.00" maxVehicleNumber="0" />
   <interval begin="153.00" end="177.00" id="4N" sampledSeconds="115.01" nVehEntered="1" nVehLeft="0" nVehSeen="5" meanSpeed="2.56" meanTimeLoss="19.47" meanOccupancy="11.98" maxOccupancy="12.50" meanMaxJamLengthInVehicles="3.79" meanMaxJamLengthInMeters="25.94" maxJamLengthInVehicles="5" maxJamLengthInMeters="35.01" jamLengthInVehiclesSum="91" jamLengthInMetersSum="622.60" meanHaltingDuration="20.20" maxHaltingDuration="28.00" haltingDurationSum="101.00" meanIntervalHaltingDuration="18.80" maxIntervalHaltingDuration="24.00" intervalHaltingDurationSum="94.00" startedHalts="3.00" meanVehicleNumber="4.83" maxVehicleNumber="5" />
   <interval begin="177.00" end="182.00" id="1W" sampledSeconds="12.20" nVehEntered="1" nVehLeft="1" nVehSeen="4" meanSpeed="15.04" meanTimeLoss="0.27" meanOccupancy="5.73" maxOccupancy="7.50" meanMaxJamLengthInVehicles="0.00" meanMaxJamLengthInMeters="0.00" maxJamLengthInVehicles="0" maxJamLengthInMeters="0.00" jamLengthInVehiclesSum="0" jamLengthInMetersSum="0.00" meanHaltingDuration="0.00" maxHaltingDuration="0.00" haltingDurationSum="0.00" meanIntervalHaltingDuration="0.00" maxIntervalHaltingDuration="0.00" intervalHaltingDurationSum="0.00" startedHalts="0.00" meanVehicleNumber="2.60" maxVehicleNumber="3" />
   <interval begin="177.00" end="182.00" id="2E" sampledSeconds="13.98" nVehEntered="1" nVehLeft="1" nVehSeen="4" meanSpeed="14.54" meanTimeLoss="0.44" meanOccupancy="6.71" maxOccupancy="7.50" meanMaxJamLengthInVehicles="0.00" meanMaxJamLengthInMeters="0.00" maxJamLengthInVehicles="0" maxJamLengthInMeters="0.00" jamLengthInVehiclesSum="0" jamLengthInMetersSum="0.00" meanHaltingDuration="0.00" maxHaltingDuration="0.00" haltingDurationSum="0.00" meanIntervalHaltingDuration="0.00" maxIntervalHaltingDuration="0.00" intervalHaltingDurationSum="0.00" startedHalts="0.00" meanVehicleNumber="3.00" maxVehicleNumber="3" />
   <interval begin="177.00" end="182.00" id="3S" sampledSeconds="0.00" nVehEntered="0" nVehLeft="0" nVehSeen="0" meanSpeed="-1.00" meanTimeLoss="-1.00" meanOccupancy="0.00" maxOccupancy="0.00" meanMaxJamLengthInVehicles="0.00" meanMaxJamLengthInMeters="0.00" maxJamLengthInVehicles="0" maxJamLengthInMeters="0.00" jamLengthInVehiclesSum="0" jamLengthInMetersSum="0.00" meanHaltingDuration="0.00" maxHaltingDuration="0.00" haltingDurationSum="0.00" meanIntervalHaltingDuration="0.00" maxIntervalHaltingDuration="0.00" intervalHaltingDurationSum="0.00" startedHalts="0.00" meanVehicleNumber="0.00" maxVehicleNumber="0" />
   <interval begin="177.00" end="182.00" id="4N" sampledSeconds="25.00" nVehEntered="0" nVehLeft="0" nVehSeen="5" meanSpeed="0.00" meanTimeLoss="5.00" meanOccupancy="12.50" maxOccupancy="12.50" meanMaxJamLengthInVehicles="5.00" meanMaxJamLengthInMeters="35.00" maxJamLengthInVehicles="5" maxJamLengthInMeters="35.00" jamLengthInVehiclesSum="25" jamLengthInMetersSum="175.02" meanHaltingDuration="25.20" maxHaltingDuration="33.00" haltingDurationSum="126.00" meanIntervalHaltingDuration="5.00" maxIntervalHaltingDuration="5.00" intervalHaltingDurationSum="25.00" startedHalts="0.00" meanVehicleNumber="5.00" maxVehicleNumber="5" />
   <interval begin="182.00" end="194.00" id="1W" sampledSeconds="48.14" nVehEntered="2" nVehLeft="0" nVehSeen="5" meanSpeed="9.54" meanTimeLoss="4.12" meanOccupancy="10.21" maxOccupancy="12.50" meanMaxJamLengthInVehicles="1.17" meanMaxJamLengthInMeters="6.67" maxJamLengthInVehicles="2" maxJamLengthInMeters="12.50" jamLengthInVehiclesSum="14" jamLengthInMetersSum="80.00" meanHaltingDuration="8.00" maxHaltingDuration="11.00" haltingDurationSum="16.00" meanIntervalHaltingDuration="8.00" maxIntervalHaltingDuration="11.00" intervalHaltingDurationSum="16.00" startedHalts="2.00" meanVehicleNumber="4.08" maxVehicleNumber="5" />
   <interval begin="182.00" end="194.00" id="2E" sampledSeconds="48.40" nVehEntered="2" nVehLeft="0" nVehSeen="5" meanSpeed="9.11" meanTimeLoss="4.39" meanOccupancy="10.21" maxOccupancy="12.50" meanMaxJamLengthInVehicles="1.17" meanMaxJamLengthInMeters="6.67" maxJamLengthInVehicles="2" maxJamLengthInMeters="12.51" jamLengthInVehiclesSum="14" jamLengthInMetersSum="80.02" meanHaltingDuration="5.67" maxHaltingDuration="11.00" haltingDurationSum="17.00" meanIntervalHaltingDuration="5.67" maxIntervalHaltingDuration="11.00" intervalHaltingDurationSum="17.00" startedHalts="3.00" meanVehicleNumber="4.08" maxVehicleNumber="5" />