<?xml version="1.0" encoding="UTF-8"?>

<!-- generated on Fri Mar 30 03:50:30 2018 by SUMO Version 0.32.0
<?xml version="1.0" encoding="UTF-8"?>

<configuration xmlns:xsi="http://www.w3.org/2001/XMLSchema-instance" xsi:noNamespaceSchemaLocation="http://sumo.dlr.de/xsd/sumoConfiguration.xsd">

    <input>
        <net-file value="data/single/cross.net.xml"/>
        <route-files value="data/single/cross.rou.xml"/>
        <additional-files value="data/single/cross.det.xml,data/single/cross.det2.xml"/>
    </input>

    <output>
        <tripinfo-output value="dql_episode19_tripinfo.xml"/>
    </output>

    <time>
        <begin value="0"/>
    </time>

    <report>
        <verbose value="true"/>
        <error-log value="errors"/>
        <no-step-log value="true"/>
    </report>

    <traci_server>
        <remote-port value="54921"/>
    </traci_server>

</configuration>
-->

<detector xmlns:xsi="http://www.w3.org/2001/XMLSchema-instance" xsi:noNamespaceSchemaLocation="http://sumo.dlr.de/xsd/det_e1_file.xsd">
    <interval begin="0.00" end="30.00" id="0" nVehContrib="0" flow="0.00" occupancy="0.00" speed="-1.00" length="-1.00" nVehEntered="0"/>
    <interval begin="30.00" end="60.00" id="0" nVehContrib="1" flow="120.00" occupancy="1.02" speed="16.40" length="5.00" nVehEntered="1"/>
    <interval begin="60.00" end="90.00" id="0" nVehContrib="3" flow="360.00" occupancy="3.42" speed="14.72" length="5.00" nVehEntered="3"/>
    <interval begin="90.00" end="120.00" id="0" nVehContrib="2" flow="240.00" occupancy="2.29" speed="14.55" length="5.00" nVehEntered="2"/>
    <interval begin="120.00" end="150.00" id="0" nVehContrib="3" flow="360.00" occupancy="3.71" speed="13.62" length="5.00" nVehEntered="3"/>
    <interval begin="150.00" end="180.00" id="0" nVehContrib="2" flow="240.00" occupancy="2.84" speed="11.81" length="5.00" nVehEntered="2"/>
    <interval begin="180.00" end="210.00" id="0" nVehContrib="1" flow="120.00" occupancy="1.16" speed="14.38" length="5.00" nVehEntered="1"/>
    <interval begin="210.00" end="240.00" id="0" nVehContrib="3" flow="360.00" occupancy="6.31" speed="9.08" length="5.00" nVehEntered="3"/>
    <interval begin="240.00" end="270.00" id="0" nVehContrib="2" flow="240.00" occupancy="2.91" speed="11.60" length="5.00" nVehEntered="2"/>
    <interval begin="270.00" end="300.00" id="0" nVehContrib="3" flow="360.00" occupancy="5.56" speed="10.56" length="5.00" nVehEntered="3"/>
    <interval begin="300.00" end="330.00" id="0" nVehContrib="2" flow="240.00" occupancy="9.22" speed="8.15" length="5.00" nVehEntered="3"/>
    <interval begin="330.00" end="360.00" id="0" nVehContrib="4" flow="480.00" occupancy="7.89" speed="12.74" length="5.00" nVehEntered="3"/>
    <interval begin="360.00" end="390.00" id="0" nVehContrib="3" flow="360.00" occupancy="5.98" speed="9.92" length="5.00" nVehEntered="3"/>
    <interval begin="390.00" end="420.00" id="0" nVehContrib="5" flow="600.00" occupancy="21.94" speed="6.74" length="5.00" nVehEntered="5"/>
    <interval begin="420.00" end="450.00" id="0" nVehContrib="3" flow="360.00" occupancy="5.39" speed="10.47" length="5.00" nVehEntered="3"/>
    <interval begin="450.00" end="480.00" id="0" nVehContrib="4" flow="480.00" occupancy="26.92" speed="6.14" length="5.00" nVehEntered="4"/>
    <interval begin="480.00" end="510.00" id="0" nVehContrib="4" flow="480.00" occupancy="6.94" speed="11.04" length="5.00" nVehEntered="4"/>
    <interval begin="510.00" end="540.00" id="0" nVehContrib="7" flow="840.00" occupancy="25.21" speed="9.10" length="5.00" nVehEntered="7"/>
    <interval begin="540.00" end="570.00" id="0" nVehContrib="4" flow="480.00" occupancy="4.45" speed="15.12" length="5.00" nVehEntered="4"/>
    <interval begin="570.00" end="600.00" id="0" nVehContrib="0" flow="0.00" occupancy="0.00" speed="-1.00" length="-1.00" nVehEntered="0"/>
    <interval begin="600.00" end="630.00" id="0" nVehContrib="2" flow="240.00" occupancy="2.63" speed="13.35" length="5.00" nVehEntered="2"/>
    <interval begin="630.00" end="660.00" id="0" nVehContrib="2" flow="240.00" occupancy="2.56" speed="13.23" length="5.00" nVehEntered="2"/>
    <interval begin="660.00" end="690.00" id="0" nVehContrib="3" flow="360.00" occupancy="4.75" speed="10.54" length="5.00" nVehEntered="3"/>
    <interval begin="690.00" end="720.00" id="0" nVehContrib="0" flow="0.00" occupancy="0.00" speed="-1.00" length="-1.00" nVehEntered="0"/>
    <interval begin="720.00" end="750.00" id="0" nVehContrib="6" flow="720.00" occupancy="8.85" speed="13.03" length="5.00" nVehEntered="6"/>
    <interval begin="750.00" end="780.00" id="0" nVehContrib="3" flow="360.00" occupancy="5.92" speed="9.47" length="5.00" nVehEntered="3"/>
    <interval begin="780.00" end="810.00" id="0" nVehContrib="3" flow="360.00" occupancy="12.21" speed="4.71" length="5.00" nVehEntered="3"/>
    <interval begin="810.00" end="840.00" id="0" nVehContrib="3" flow="360.00" occupancy="18.94" speed="3.16" length="5.00" nVehEntered="3"/>
    <interval begin="840.00" end="870.00" id="0" nVehContrib="0" flow="0.00" occupancy="0.00" speed="-1.00" length="-1.00" nVehEntered="0"/>
    <interval begin="870.00" end="900.00" id="0" nVehContrib="4" flow="480.00" occupancy="25.57" speed="3.32" length="5.00" nVehEntered="5"/>
    <interval begin="900.00" end="930.00" id="0" nVehContrib="5" flow="600.00" occupancy="9.93" speed="8.36" length="5.00" nVehEntered="4"/>
    <interval begin="930.00" end="960.00" id="0" nVehContrib="5" flow="600.00" occupancy="6.15" speed="14.05" length="5.00" nVehEntered="5"/>
    <interval begin="960.00" end="990.00" id="0" nVehContrib="3" flow="360.00" occupancy="4.00" speed="12.82" length="5.00" nVehEntered="3"/>
    <interval begin="990.00" end="1020.00" id="0" nVehContrib="2" flow="240.00" occupancy="15.92" speed="3.39" length="5.00" nVehEntered="3"/>
    <interval begin="1020.00" end="1050.00" id="0" nVehContrib="2" flow="240.00" occupancy="6.26" speed="4.45" length="5.00" nVehEntered="1"/>
    <interval begin="1050.00" end="1080.00" id="0" nVehContrib="5" flow="600.00" occupancy="23.57" speed="5.46" length="5.00" nVehEntered="5"/>
    <interval begin="1080.00" end="1110.00" id="0" nVehContrib="1" flow="120.00" occupancy="1.18" speed="14.07" length="5.00" nVehEntered="1"/>
    <interval begin="1110.00" end="1140.00" id="0" nVehContrib="5" flow="600.00" occupancy="18.15" speed="7.95" length="5.00" nVehEntered="5"/>
    <interval begin="1140.00" end="1170.00" id="0" nVehContrib="4" flow="480.00" occupancy="4.38" speed="15.35" length="5.00" nVehEntered="4"/>
    <interval begin="1170.00" end="1200.00" id="0" nVehContrib="5" flow="600.00" occupancy="8.85" speed="10.28" length="5.00" nVehEntered="5"/>
    <interval begin="1200.00" end="1230.00" id="0" nVehContrib="2" flow="240.00" occupancy="15.99" speed="2.36" length="5.00" nVehEntered="2"/>
    <interval begin="1230.00" end="1260.00" id="0" nVehContrib="1" flow="120.00" occupancy="3.09" speed="5.39" length="5.00" nVehEntered="1"/>
    <interval begin="1260.00" end="1290.00" id="0" nVehContrib="2" flow="240.00" occupancy="17.43" speed="2.43" length="5.00" nVehEntered="3"/>
    <interval begin="1290.00" end="1320.00" id="0" nVehContrib="1" flow="120.00" occupancy="2.86" speed="3.89" length="5.00" nVehEntered="0"/>
    <interval begin="1320.00" end="1350.00" id="0" nVehContrib="5" flow="600.00" occupancy="26.11" speed="4.07" length="5.00" nVehEntered="5"/>
    <interval begin="1350.00" end="1380.00" id="0" nVehContrib="5" flow="600.00" occupancy="5.30" speed="15.84" length="5.00" nVehEntered="5"/>
    <interval begin="1380.00" end="1410.00" id="0" nVehContrib="2" flow="240.00" occupancy="8.73" speed="8.38" length="5.00" nVehEntered="3"/>
    <interval begin="1410.00" end="1440.00" id="0" nVehContrib="3" flow="360.00" occupancy="49.87" speed="4.67" length="5.00" nVehEntered="3"/>
    <interval begin="1440.00" end="1470.00" id="0" nVehContrib="3" flow="360.00" occupancy="68.03" speed="3.84" length="5.00" nVehEntered="2"/>
    <interval begin="1470.00" end="1500.00" id="0" nVehContrib="3" flow="360.00" occupancy="3.41" speed="14.77" length="5.00" nVehEntered="3"/>
    <interval begin="1500.00" end="1530.00" id="0" nVehContrib="2" flow="240.00" occupancy="4.70" speed="7.82" length="5.00" nVehEntered="2"/>
    <interval begin="1530.00" end="1560.00" id="0" nVehContrib="3" flow="360.00" occupancy="20.70" speed="2.81" length="5.00" nVehEntered="3"/>
    <interval begin="1560.00" end="1590.00" id="0" nVehContrib="2" flow="240.00" occupancy="13.78" speed="2.69" length="5.00" nVehEntered="2"/>
    <interval begin="1590.00" end="1620.00" id="0" nVehContrib="4" flow="480.00" occupancy="9.03" speed="10.48" length="5.00" nVehEntered="4"/>
    <interval begin="1620.00" end="1650.00" id="0" nVehContrib="1" flow="120.00" occupancy="1.23" speed="13.59" length="5.00" nVehEntered="1"/>
    <interval begin="1650.00" end="1680.00" id="0" nVehContrib="3" flow="360.00" occupancy="4.21" speed="12.48" length="5.00" nVehEntered="3"/>
    <interval begin="1680.00" end="1710.00" id="0" nVehContrib="2" flow="240.00" occupancy="4.98" speed="7.39" length="5.00" nVehEntered="2"/>
    <interval begin="1710.00" end="1740.00" id="0" nVehContrib="2" flow="240.00" occupancy="15.38" speed="2.46" length="5.00" nVehEntered="2"/>
    <interval begin="1740.00" end="1770.00" id="0" nVehContrib="2" flow="240.00" occupancy="2.03" speed="16.42" length="5.00" nVehEntered="2"/>
    <interval begin="1770.00" end="1800.00" id="0" nVehContrib="1" flow="120.00" occupancy="1.14" speed="14.62" length="5.00" nVehEntered="1"/>
    <interval begin="1800.00" end="1830.00" id="0" nVehContrib="2" flow="240.00" occupancy="2.09" speed="15.98" length="5.00" nVehEntered="2"/>
    <interval begin="1830.00" end="1860.00" id="0" nVehContrib="3" flow="360.00" occupancy="4.19" speed="12.06" length="5.00" nVehEntered="3"/>
    <interval begin="1860.00" end="1890.00" id="0" nVehContrib="6" flow="720.00" occupancy="27.02" speed="4.70" length="5.00" nVehEntered="6"/>
    <interval begin="1890.00" end="1920.00" id="0" nVehContrib="3" flow="360.00" occupancy="3.34" speed="15.18" length="5.00" nVehEntered="3"/>
    <interval begin="1920.00" end="1950.00" id="0" nVehContrib="4" flow="480.00" occupancy="4.14" speed="16.10" length="5.00" nVehEntered="4"/>
    <interval begin="1950.00" end="1980.00" id="0" nVehContrib="6" flow="720.00" occupancy="6.09" speed="16.41" length="5.00" nVehEntered="6"/>
    <interval begin="1980.00" end="2010.00" id="0" nVehContrib="1" flow="120.00" occupancy="1.01" speed="16.52" length="5.00" nVehEntered="1"/>
    <interval begin="2010.00" end="2040.00" id="0" nVehContrib="5" flow="600.00" occupancy="8.48" speed="11.74" length="5.00" nVehEntered="5"/>
    <interval begin="2040.00" end="2070.00" id="0" nVehContrib="2" flow="240.00" occupancy="15.86" speed="2.31" length="5.00" nVehEntered="2"/>
    <interval begin="2070.00" end="2100.00" id="0" nVehContrib="4" flow="480.00" occupancy="6.81" speed="13.36" length="5.00" nVehEntered="4"/>
    <interval begin="2100.00" end="2130.00" id="0" nVehContrib="3" flow="360.00" occupancy="5.91" speed="9.81" length="5.00" nVehEntered="3"/>
    <interval begin="2130.00" end="2160.00" id="0" nVehContrib="2" flow="240.00" occupancy="3.06" speed="11.14" length="5.00" nVehEntered="2"/>
    <interval begin="2160.00" end="2190.00" id="0" nVehContrib="4" flow="480.00" occupancy="23.51" speed="3.74" length="5.00" nVehEntered="4"/>
    <interval begin="2190.00" end="2220.00" id="0" nVehContrib="2" flow="240.00" occupancy="15.84" speed="2.37" length="5.00" nVehEntered="2"/>
    <interval begin="2220.00" end="2250.00" id="0" nVehContrib="0" flow="0.00" occupancy="0.00" speed="-1.00" length="-1.00" nVehEntered="0"/>
    <interval begin="2250.00" end="2280.00" id="0" nVehContrib="4" flow="480.00" occupancy="4.48" speed="16.38" length="5.00" nVehEntered="5"/>
    <interval begin="2280.00" end="2310.00" id="0" nVehContrib="2" flow="240.00" occupancy="2.10" speed="13.42" length="5.00" nVehEntered="1"/>
    <interval begin="2310.00" end="2340.00" id="0" nVehContrib="0" flow="0.00" occupancy="0.00" speed="-1.00" length="-1.00" nVehEntered="0"/>
    <interval begin="2340.00" end="2370.00" id="0" nVehContrib="3" flow="360.00" occupancy="3.47" speed="14.60" length="5.00" nVehEntered="3"/>
    <interval begin="2370.00" end="2400.00" id="0" nVehContrib="5" flow="600.00" occupancy="8.28" speed="11.55" length="5.00" nVehEntered="5"/>
    <interval begin="2400.00" end="2430.00" id="0" nVehContrib="1" flow="120.00" occupancy="9.35" speed="1.78" length="5.00" nVehEntered="1"/>
    <interval begin="2430.00" end="2460.00" id="0" nVehContrib="5" flow="600.00" occupancy="16.19" speed="7.79" length="5.00" nVehEntered="5"/>
    <interval begin="2460.00" end="2490.00" id="0" nVehContrib="3" flow="360.00" occupancy="3.04" speed="16.45" length="5.00" nVehEntered="3"/>
    <interval begin="2490.00" end="2520.00" id="0" nVehContrib="0" flow="0.00" occupancy="0.00" speed="-1.00" length="-1.00" nVehEntered="0"/>
    <interval begin="2520.00" end="2550.00" id="0" nVehContrib="5" flow="600.00" occupancy="5.93" speed="14.52" length="5.00" nVehEntered="5"/>
    <interval begin="2550.00" end="2580.00" id="0" nVehContrib="4" flow="480.00" occupancy="8.96" speed="10.67" length="5.00" nVehEntered="4"/>
    <interval begin="2580.00" end="2610.00" id="0" nVehContrib="3" flow="360.00" occupancy="3.43" speed="14.87" length="5.00" nVehEntered="3"/>
    <interval begin="2610.00" end="2640.00" id="0" nVehContrib="2" flow="240.00" occupancy="2.87" speed="12.03" length="5.00" nVehEntered="2"/>
    <interval begin="2640.00" end="2670.00" id="0" nVehContrib="2" flow="240.00" occupancy="2.92" speed="11.48" length="5.00" nVehEntered="2"/>
    <interval begin="2670.00" end="2700.00" id="0" nVehContrib="3" flow="360.00" occupancy="3.66" speed="13.75" length="5.00" nVehEntered="3"/>
    <interval begin="2700.00" end="2730.00" id="0" nVehContrib="4" flow="480.00" occupancy="7.10" speed="10.86" length="5.00" nVehEntered="4"/>
    <interval begin="2730.00" end="2760.00" id="0" nVehContrib="1" flow="120.00" occupancy="12.44" speed="1.72" length="5.00" nVehEntered="2"/>
    <interval begin="2760.00" end="2790.00" id="0" nVehContrib="4" flow="480.00" occupancy="9.60" speed="7.57" length="5.00" nVehEntered="3"/>
    <interval begin="2790.00" end="2820.00" id="0" nVehContrib="0" flow="0.00" occupancy="0.00" speed="-1.00" length="-1.00" nVehEntered="0"/>
    <interval begin="2820.00" end="2850.00" id="0" nVehContrib="4" flow="480.00" occupancy="4.52" speed="15.00" length="5.00" nVehEntered="4"/>
    <interval begin="2850.00" end="2880.00" id="0" nVehContrib="2" flow="240.00" occupancy="4.64" speed="7.81" length="5.00" nVehEntered="2"/>
    <interval begin="2880.00" end="2910.00" id="0" nVehContrib="7" flow="840.00" occupancy="31.65" speed="4.65" length="5.00" nVehEntered="7"/>
    <interval begin="2910.00" end="2940.00" id="0" nVehContrib="5" flow="600.00" occupancy="6.12" speed="14.14" length="5.00" nVehEntered="5"/>
    <interval begin="2940.00" end="2970.00" id="0" nVehContrib="5" flow="600.00" occupancy="20.70" speed="6.94" length="5.00" nVehEntered="5"/>
    <interval begin="2970.00" end="3000.00" id="0" nVehContrib="2" flow="240.00" occupancy="2.19" speed="15.27" length="5.00" nVehEntered="2"/>
    <interval begin="3000.00" end="3030.00" id="0" nVehContrib="5" flow="600.00" occupancy="15.54" speed="7.62" length="5.00" nVehEntered="5"/>
    <interval begin="3030.00" end="3060.00" id="0" nVehContrib="0" flow="0.00" occupancy="0.00" speed="-1.00" length="-1.00" nVehEntered="0"/>
    <interval begin="3060.00" end="3090.00" id="0" nVehContrib="3" flow="360.00" occupancy="22.64" speed="3.30" length="5.00" nVehEntered="4"/>
    <interval begin="3090.00" end="3120.00" id="0" nVehContrib="3" flow="360.00" occupancy="6.86" speed="8.50" length="5.00" nVehEntered="2"/>
    <interval begin="3120.00" end="3150.00" id="0" nVehContrib="3" flow="360.00" occupancy="3.22" speed="15.60" length="5.00" nVehEntered="3"/>
    <interval begin="3150.00" end="3180.00" id="0" nVehContrib="3" flow="360.00" occupancy="6.09" speed="9.05" length="5.00" nVehEntered="3"/>
    <interval begin="3180.00" end="3210.00" id="0" nVehContrib="1" flow="120.00" occupancy="1.34" speed="12.42" length="5.00" nVehEntered="1"/>
    <interval begin="3210.00" end="3240.00" id="0" nVehContrib="2" flow="240.00" occupancy="2.72" speed="12.64" length="5.00" nVehEntered="2"/>
    <interval begin="3240.00" end="3270.00" id="0" nVehContrib="2" flow="240.00" occupancy="3.17" speed="10.69" length="5.00" nVehEntered="2"/>
    <interval begin="3270.00" end="3300.00" id="0" nVehContrib="1" flow="120.00" occupancy="1.05" speed="15.86" length="5.00" nVehEntered="1"/>
    <interval begin="3300.00" end="3330.00" id="0" nVehContrib="6" flow="720.00" occupancy="7.07" speed="14.71" length="5.00" nVehEntered="6"/>
    <interval begin="3330.00" end="3360.00" id="0" nVehContrib="4" flow="480.00" occupancy="23.91" speed="3.59" length="5.00" nVehEntered="4"/>
    <interval begin="3360.00" end="3390.00" id="0" nVehContrib="2" flow="240.00" occupancy="2.18" speed="15.37" length="5.00" nVehEntered="2"/>
    <interval begin="3390.00" end="3420.00" id="0" nVehContrib="0" flow="0.00" occupancy="0.00" speed="-1.00" length="-1.00" nVehEntered="0"/>
    <interval begin="3420.00" end="3450.00" id="0" nVehContrib="4" flow="480.00" occupancy="4.30" speed="15.62" length="5.00" nVehEntered="4"/>
    <interval begin="3450.00" end="3480.00" id="0" nVehContrib="3" flow="360.00" occupancy="15.60" speed="6.04" length="5.00" nVehEntered="4"/>
    <interval begin="3480.00" end="3510.00" id="0" nVehContrib="4" flow="480.00" occupancy="7.32" speed="10.84" length="5.00" nVehEntered="3"/>
    <interval begin="3510.00" end="3540.00" id="0" nVehContrib="3" flow="360.00" occupancy="3.25" speed="15.49" length="5.00" nVehEntered="3"/>
    <interval begin="3540.00" end="3570.00" id="0" nVehContrib="3" flow="360.00" occupancy="6.07" speed="9.45" length="5.00" nVehEntered="3"/>
    <interval begin="3570.00" end="3600.00" id="0" nVehContrib="6" flow="720.00" occupancy="27.28" speed="4.62" length="5.00" nVehEntered="6"/>
    <interval begin="3600.00" end="3630.00" id="0" nVehContrib="4" flow="480.00" occupancy="4.24" speed="15.82" length="5.00" nVehEntered="4"/>
    <interval begin="3630.00" end="3660.00" id="0" nVehContrib="2" flow="240.00" occupancy="2.01" speed="16.57" length="5.00" nVehEntered="2"/>
    <interval begin="3660.00" end="3690.00" id="0" nVehContrib="3" flow="360.00" occupancy="3.38" speed="14.86" length="5.00" nVehEntered="3"/>
    <interval begin="3690.00" end="3720.00" id="0" nVehContrib="2" flow="240.00" occupancy="4.39" speed="8.48" length="5.00" nVehEntered="2"/>
    <interval begin="3720.00" end="3750.00" id="0" nVehContrib="5" flow="600.00" occupancy="24.58" speed="4.29" length="5.00" nVehEntered="5"/>
    <interval begin="3750.00" end="3780.00" id="0" nVehContrib="4" flow="480.00" occupancy="6.66" speed="11.85" length="5.00" nVehEntered="4"/>
    <interval begin="3780.00" end="3810.00" id="0" nVehContrib="4" flow="480.00" occupancy="6.90" speed="11.18" length="5.00" nVehEntered="4"/>
    <interval begin="3810.00" end="3840.00" id="0" nVehContrib="1" flow="120.00" occupancy="1.22" speed="13.70" length="5.00" nVehEntered="1"/>
    <interval begin="3840.00" end="3870.00" id="0" nVehContrib="3" flow="360.00" occupancy="7.35" speed="7.29" length="5.00" nVehEntered="3"/>
    <interval begin="3870.00" end="3900.00" id="0" nVehContrib="2" flow="240.00" occupancy="4.37" speed="8.01" length="5.00" nVehEntered="2"/>
    <interval begin="3900.00" end="3930.00" id="0" nVehContrib="2" flow="240.00" occupancy="9.49" speed="6.42" length="5.00" nVehEntered="2"/>
    <interval begin="3930.00" end="3960.00" id="0" nVehContrib="2" flow="240.00" occupancy="2.02" speed="16.51" length="5.00" nVehEntered="2"/>
    <interval begin="3960.00" end="3990.00" id="0" nVehContrib="1" flow="120.00" occupancy="1.01" speed="16.45" length="5.00" nVehEntered="1"/>
    <interval begin="3990.00" end="4020.00" id="0" nVehContrib="3" flow="360.00" occupancy="3.52" speed="14.42" length="5.00" nVehEntered="3"/>
    <interval begin="4020.00" end="4050.00" id="0" nVehContrib="1" flow="120.00" occupancy="1.54" speed="10.85" length="5.00" nVehEntered="1"/>
    <interval begin="4050.00" end="4080.00" id="0" nVehContrib="3" flow="360.00" occupancy="4.45" speed="11.55" length="5.00" nVehEntered="3"/>
    <interval begin="4080.00" end="4110.00" id="0" nVehContrib="1" flow="120.00" occupancy="1.18" speed="14.13" length="5.00" nVehEntered="1"/>
    <interval begin="4110.00" end="4140.00" id="0" nVehContrib="3" flow="360.00" occupancy="5.53" speed="9.76" length="5.00" nVehEntered="3"/>
    <interval begin="4140.00" end="4170.00" id="0" nVehContrib="3" flow="360.00" occupancy="6.32" speed="8.76" length="5.00" nVehEntered="3"/>
    <interval begin="4170.00" end="4200.00" id="0" nVehContrib="3" flow="360.00" occupancy="18.38" speed="3.20" length="5.00" nVehEntered="3"/>
    <interval begin="4200.00" end="4230.00" id="0" nVehContrib="2" flow="240.00" occupancy="2.14" speed="15.59" length="5.00" nVehEntered="2"/>
    <interval begin="4230.00" end="4260.00" id="0" nVehContrib="3" flow="360.00" occupancy="4.62" speed="10.95" length="5.00" nVehEntered="3"/>
    <interval begin="4260.00" end="4290.00" id="0" nVehContrib="1" flow="120.00" occupancy="1.39" speed="11.97" length="5.00" nVehEntered="1"/>
    <interval begin="4290.00" end="4320.00" id="0" nVehContrib="2" flow="240.00" occupancy="2.16" speed="15.48" length="5.00" nVehEntered="2"/>
    <interval begin="4320.00" end="4350.00" id="0" nVehContrib="4" flow="480.00" occupancy="5.19" speed="13.55" length="5.00" nVehEntered="4"/>
    <interval begin="4350.00" end="4380.00" id="0" nVehContrib="2" flow="240.00" occupancy="2.04" speed="16.37" length="5.00" nVehEntered="2"/>
    <interval begin="4380.00" end="4410.00" id="0" nVehContrib="4" flow="480.00" occupancy="5.37" speed="12.62" length="5.00" nVehEntered="4"/>
    <interval begin="4410.00" end="4440.00" id="0" nVehContrib="5" flow="600.00" occupancy="5.51" speed="15.66" length="5.00" nVehEntered="6"/>
    <interval begin="4440.00" end="4470.00" id="0" nVehContrib="4" flow="480.00" occupancy="18.35" speed="7.34" length="5.00" nVehEntered="4"/>
    <interval begin="4470.00" end="4500.00" id="0" nVehContrib="4" flow="480.00" occupancy="7.61" speed="10.44" length="5.00" nVehEntered="3"/>
    <interval begin="4500.00" end="4530.00" id="0" nVehContrib="3" flow="360.00" occupancy="5.35" speed="13.55" length="5.00" nVehEntered="4"/>
    <interval begin="4530.00" end="4560.00" id="0" nVehContrib="3" flow="360.00" occupancy="6.51" speed="6.65" length="5.00" nVehEntered="2"/>
    <interval begin="4560.00" end="4590.00" id="0" nVehContrib="3" flow="360.00" occupancy="19.77" speed="3.32" length="5.00" nVehEntered="3"/>
    <interval begin="4590.00" end="4620.00" id="0" nVehContrib="0" flow="0.00" occupancy="0.00" speed="-1.00" length="-1.00" nVehEntered="0"/>
    <interval begin="4620.00" end="4650.00" id="0" nVehContrib="4" flow="480.00" occupancy="4.59" speed="14.74" length="5.00" nVehEntered="4"/>
    <interval begin="4650.00" end="4680.00" id="0" nVehContrib="5" flow="600.00" occupancy="19.90" speed="5.48" length="5.00" nVehEntered="5"/>
    <interval begin="4680.00" end="4710.00" id="0" nVehContrib="0" flow="0.00" occupancy="5.57" speed="-1.00" length="-1.00" nVehEntered="1"/>
    <interval begin="4710.00" end="4740.00" id="0" nVehContrib="3" flow="360.00" occupancy="12.85" speed="3.42" length="5.00" nVehEntered="2"/>
    <interval begin="4740.00" end="4770.00" id="0" nVehContrib="8" flow="960.00" occupancy="33.46" speed="4.86" length="5.00" nVehEntered="8"/>
    <interval begin="4770.00" end="4800.00" id="0" nVehContrib="0" flow="0.00" occupancy="0.00" speed="-1.00" length="-1.00" nVehEntered="0"/>
    <interval begin="4800.00" end="4830.00" id="0" nVehContrib="5" flow="600.00" occupancy="22.29" speed="5.45" length="5.00" nVehEntered="5"/>
    <interval begin="4830.00" end="4860.00" id="0" nVehContrib="3" flow="360.00" occupancy="5.78" speed="9.53" length="5.00" nVehEntered="3"/>
    <interval begin="4860.00" end="4890.00" id="0" nVehContrib="2" flow="240.00" occupancy="20.41" speed="2.20" length="5.00" nVehEntered="2"/>
    <interval begin="4890.00" end="4920.00" id="0" nVehContrib="1" flow="120.00" occupancy="4.61" speed="3.62" length="5.00" nVehEntered="1"/>
    <interval begin="4920.00" end="4950.00" id="0" nVehContrib="4" flow="480.00" occupancy="23.16" speed="3.62" length="5.00" nVehEntered="4"/>
    <interval begin="4950.00" end="4980.00" id="0" nVehContrib="5" flow="600.00" occupancy="8.14" speed="11.93" length="5.00" nVehEntered="5"/>
    <interval begin="4980.00" end="5010.00" id="0" nVehContrib="3" flow="360.00" occupancy="20.37" speed="2.89" length="5.00" nVehEntered="3"/>
    <interval begin="5010.00" end="5040.00" id="0" nVehContrib="7" flow="840.00" occupancy="28.98" speed="5.63" length="5.00" nVehEntered="7"/>
    <interval begin="5040.00" end="5070.00" id="0" nVehContrib="2" flow="240.00" occupancy="4.88" speed="7.43" length="5.00" nVehEntered="2"/>
    <interval begin="5070.00" end="5100.00" id="0" nVehContrib="0" flow="0.00" occupancy="0.00" speed="-1.00" length="-1.00" nVehEntered="0"/>
    <interval begin="5100.00" end="5130.00" id="0" nVehContrib="11" flow="1320.00" occupancy="37.59" speed="6.19" length="5.00" nVehEntered="11"/>
    <interval begin="5130.00" end="5160.00" id="0" nVehContrib="4" flow="480.00" occupancy="9.07" speed="8.05" length="5.00" nVehEntered="4"/>
    <interval begin="5160.00" end="5190.00" id="0" nVehContrib="6" flow="720.00" occupancy="26.50" speed="4.72" length="5.00" nVehEntered="6"/>
    <interval begin="5190.00" end="5220.00" id="0" nVehContrib="9" flow="1080.00" occupancy="19.74" speed="8.31" length="5.00" nVehEntered="9"/>
    <interval begin="5220.00" end="5250.00" id="0" nVehContrib="7" flow="840.00" occupancy="30.71" speed="4.61" length="5.00" nVehEntered="7"/>
    <interval begin="5250.00" end="5280.00" id="0" nVehContrib="2" flow="240.00" occupancy="6.19" speed="5.64" length="5.00" nVehEntered="2"/>
    <interval begin="5280.00" end="5310.00" id="0" nVehContrib="0" flow="0.00" occupancy="0.00" speed="-1.00" length="-1.00" nVehEntered="0"/>
    <interval begin="5310.00" end="5340.00" id="0" nVehContrib="5" flow="600.00" occupancy="25.25" speed="4.14" length="5.00" nVehEntered="5"/>
    <interval begin="5340.00" end="5370.00" id="0" nVehContrib="15" flow="1800.00" occupancy="25.87" speed="10.00" length="5.00" nVehEntered="15"/>
    <interval begin="5370.00" end="5400.00" id="0" nVehContrib="1" flow="120.00" occupancy="3.77" speed="4.43" length="5.00" nVehEntered="1"/>
    <interval begin="5400.00" end="5430.00" id="0" nVehContrib="3" flow="360.00" occupancy="19.17" speed="3.18" length="5.00" nVehEntered="3"/>
    <interval begin="5430.00" end="5460.00" id="0" nVehContrib="14" flow="1680.00" occupancy="28.87" speed="8.84" length="5.00" nVehEntered="15"/>
    <interval begin="5460.00" end="5490.00" id="0" nVehContrib="4" flow="480.00" occupancy="6.52" speed="10.03" length="5.00" nVehEntered="3"/>
    <interval begin="5490.00" end="5520.00" id="0" nVehContrib="7" flow="840.00" occupancy="30.46" speed="5.06" length="5.00" nVehEntered="7"/>
    <interval begin="5520.00" end="5550.00" id="0" nVehContrib="2" flow="240.00" occupancy="5.78" speed="6.03" length="5.00" nVehEntered="2"/>
    <interval begin="5550.00" end="5580.00" id="0" nVehContrib="0" flow="0.00" occupancy="0.00" speed="-1.00" length="-1.00" nVehEntered="0"/>
    <interval begin="5580.00" end="5610.00" id="0" nVehContrib="0" flow="0.00" occupancy="9.91" speed="-1.00" length="-1.00" nVehEntered="1"/>
    <interval begin="5610.00" end="5640.00" id="0" nVehContrib="13" flow="1560.00" occupancy="35.03" speed="6.32" length="5.00" nVehEntered="12"/>
    <interval begin="5640.00" end="5670.00" id="0" nVehContrib="14" flow="1680.00" occupancy="24.84" speed="10.21" length="5.00" nVehEntered="14"/>
    <interval begin="5670.00" end="5700.00" id="0" nVehContrib="0" flow="0.00" occupancy="0.00" speed="-1.00" length="-1.00" nVehEntered="0"/>
    <interval begin="5700.00" end="5730.00" id="0" nVehContrib="1" flow="120.00" occupancy="10.19" speed="1.64" length="5.00" nVehEntered="1"/>
    <interval begin="5730.00" end="5760.00" id="0" nVehContrib="13" flow="1560.00" occupancy="34.84" speed="6.92" length="5.00" nVehEntered="13"/>
    <interval begin="5760.00" end="5790.00" id="0" nVehContrib="0" flow="0.00" occupancy="0.00" speed="-1.00" length="-1.00" nVehEntered="0"/>
    <interval begin="5790.00" end="5820.00" id="0" nVehContrib="4" flow="480.00" occupancy="22.81" speed="3.72" length="5.00" nVehEntered="4"/>
    <interval begin="5820.00" end="5850.00" id="0" nVehContrib="15" flow="1800.00" occupancy="28.00" speed="9.25" length="5.00" nVehEntered="15"/>
    <interval begin="5850.00" end="5880.00" id="0" nVehContrib="2" flow="240.00" occupancy="6.24" speed="5.91" length="5.00" nVehEntered="2"/>
    <interval begin="5880.00" end="5910.00" id="0" nVehContrib="0" flow="0.00" occupancy="0.00" speed="-1.00" length="-1.00" nVehEntered="0"/>
    <interval begin="5910.00" end="5940.00" id="0" nVehContrib="10" flow="1200.00" occupancy="33.18" speed="6.32" length="5.00" nVehEntered="10"/>
    <interval begin="5940.00" end="5970.00" id="0" nVehContrib="11" flow="1320.00" occupancy="19.11" speed="10.28" length="5.00" nVehEntered="11"/>
    <interval begin="5970.00" end="6000.00" id="0" nVehContrib="0" flow="0.00" occupancy="0.00" speed="-1.00" length="-1.00" nVehEntered="0"/>
    <interval begin="6000.00" end="6030.00" id="0" nVehContrib="3" flow="360.00" occupancy="18.38" speed="3.23" length="5.00" nVehEntered="3"/>