<?xml version="1.0" encoding="UTF-8"?>

<!-- generated on Thu Mar 15 01:11:59 2018 by SUMO Version 0.32.0
<?xml version="1.0" encoding="UTF-8"?>

<configuration xmlns:xsi="http://www.w3.org/2001/XMLSchema-instance" xsi:noNamespaceSchemaLocation="http://sumo.dlr.de/xsd/sumoConfiguration.xsd">

    <input>
        <net-file value="data/cross.net.xml"/>
        <route-files value="data/cross.rou.xml"/>
        <additional-files value="data/cross.det.xml,data/cross.det2.xml"/>
    </input>

    <output>
        <tripinfo-output value="fgreen=45_tripinfo.xml"/>
    </output>

    <time>
        <begin value="0"/>
    </time>

    <report>
        <verbose value="true"/>
        <error-log value="errors"/>
        <no-step-log value="true"/>
    </report>

    <traci_server>
        <remote-port value="54386"/>
    </traci_server>

</configuration>
-->

<tripinfos xmlns:xsi="http://www.w3.org/2001/XMLSchema-instance" xsi:noNamespaceSchemaLocation="http://sumo.dlr.de/xsd/tripinfo_file.xsd">
    <tripinfo id="left_0" depart="0.00" departLane="52o_0" departPos="5.10" departSpeed="0.00" departDelay="0.00" arrival="91.00" arrivalLane="51i_0" arrivalPos="10.00" arrivalSpeed="11.70" duration="91.00" routeLength="1015.10" waitSteps="0" timeLoss="14.89" rerouteNo="0" devices="tripinfo_left_0" vType="typeWE" speedFactor="1.00" vaporized=""/>
    <tripinfo id="right_2" depart="3.00" departLane="51o_0" departPos="5.10" departSpeed="0.00" departDelay="0.00" arrival="94.00" arrivalLane="52i_0" arrivalPos="10.00" arrivalSpeed="11.63" duration="91.00" routeLength="1015.10" waitSteps="0" timeLoss="14.52" rerouteNo="0" devices="tripinfo_right_2" vType="typeWE" speedFactor="1.00" vaporized=""/>
    <tripinfo id="down_6" depart="13.00" departLane="54o_0" departPos="7.10" departSpeed="0.00" departDelay="0.00" arrival="103.00" arrivalLane="53i_0" arrivalPos="10.00" arrivalSpeed="11.57" duration="90.00" routeLength="1013.10" waitSteps="0" timeLoss="18.38" rerouteNo="0" devices="tripinfo_down_6" vType="typeNS" speedFactor="1.00" vaporized=""/>
    <tripinfo id="down_8" depart="29.00" departLane="54o_0" departPos="7.10" departSpeed="0.00" departDelay="0.00" arrival="120.00" arrivalLane="53i_0" arrivalPos="10.00" arrivalSpeed="11.49" duration="91.00" routeLength="1013.10" waitSteps="0" timeLoss="18.70" rerouteNo="0" devices="tripinfo_down_8" vType="typeNS" speedFactor="1.00" vaporized=""/>
    <tripinfo id="right_3" depart="8.00" departLane="51o_0" departPos="5.10" departSpeed="0.00" departDelay="4.00" arrival="158.00" arrivalLane="52i_0" arrivalPos="10.00" arrivalSpeed="11.51" duration="150.00" routeLength="1015.10" waitSteps="48" timeLoss="73.54" rerouteNo="0" devices="tripinfo_right_3" vType="typeWE" speedFactor="1.00" vaporized=""/>
    <tripinfo id="left_1" depart="5.00" departLane="52o_0" departPos="5.10" departSpeed="0.00" departDelay="3.00" arrival="159.00" arrivalLane="51i_0" arrivalPos="10.00" arrivalSpeed="11.57" duration="154.00" routeLength="1015.10" waitSteps="51" timeLoss="77.70" rerouteNo="0" devices="tripinfo_left_1" vType="typeWE" speedFactor="1.00" vaporized=""/>
    <tripinfo id="right_5" depart="13.00" departLane="51o_0" departPos="5.10" departSpeed="0.00" departDelay="4.00" arrival="160.00" arrivalLane="52i_0" arrivalPos="10.00" arrivalSpeed="11.45" duration="147.00" routeLength="1015.10" waitSteps="46" timeLoss="71.10" rerouteNo="0" devices="tripinfo_right_5" vType="typeWE" speedFactor="1.00" vaporized=""/>
    <tripinfo id="left_4" depart="10.00" departLane="52o_0" departPos="5.10" departSpeed="0.00" departDelay="4.00" arrival="161.00" arrivalLane="51i_0" arrivalPos="10.00" arrivalSpeed="11.36" duration="151.00" routeLength="1015.10" waitSteps="48" timeLoss="74.55" rerouteNo="0" devices="tripinfo_left_4" vType="typeWE" speedFactor="1.00" vaporized=""/>
    <tripinfo id="left_7" depart="22.00" departLane="52o_0" departPos="5.10" departSpeed="0.00" departDelay="0.00" arrival="162.00" arrivalLane="51i_0" arrivalPos="10.00" arrivalSpeed="11.10" duration="140.00" routeLength="1015.10" waitSteps="38" timeLoss="64.03" rerouteNo="0" devices="tripinfo_left_7" vType="typeWE" speedFactor="1.00" vaporized=""/>
    <tripinfo id="right_12" depart="42.00" departLane="51o_0" departPos="5.10" departSpeed="0.00" departDelay="0.00" arrival="163.00" arrivalLane="52i_0" arrivalPos="10.00" arrivalSpeed="11.51" duration="121.00" routeLength="1015.10" waitSteps="17" timeLoss="44.66" rerouteNo="0" devices="tripinfo_right_12" vType="typeWE" speedFactor="1.00" vaporized=""/>
    <tripinfo id="left_9" depart="31.00" departLane="52o_0" departPos="5.10" departSpeed="0.00" departDelay="0.00" arrival="165.00" arrivalLane="51i_0" arrivalPos="10.00" arrivalSpeed="11.58" duration="134.00" routeLength="1015.10" waitSteps="30" timeLoss="57.31" rerouteNo="0" devices="tripinfo_left_9" vType="typeWE" speedFactor="1.00" vaporized=""/>
    <tripinfo id="right_15" depart="55.00" departLane="51o_0" departPos="5.10" departSpeed="0.00" departDelay="0.00" arrival="165.00" arrivalLane="52i_0" arrivalPos="10.00" arrivalSpeed="11.89" duration="110.00" routeLength="1015.10" waitSteps="6" timeLoss="33.45" rerouteNo="0" devices="tripinfo_right_15" vType="typeWE" speedFactor="1.00" vaporized=""/>
    <tripinfo id="left_10" depart="36.00" departLane="52o_0" departPos="5.10" departSpeed="0.00" departDelay="3.00" arrival="167.00" arrivalLane="51i_0" arrivalPos="10.00" arrivalSpeed="11.80" duration="131.00" routeLength="1015.10" waitSteps="27" timeLoss="54.58" rerouteNo="0" devices="tripinfo_left_10" vType="typeWE" speedFactor="1.00" vaporized=""/>
    <tripinfo id="right_16" depart="61.00" departLane="51o_0" departPos="5.10" departSpeed="0.00" departDelay="0.00" arrival="167.00" arrivalLane="52i_0" arrivalPos="10.00" arrivalSpeed="11.70" duration="106.00" routeLength="1015.10" waitSteps="1" timeLoss="29.79" rerouteNo="0" devices="tripinfo_right_16" vType="typeWE" speedFactor="1.00" vaporized=""/>
    <tripinfo id="left_11" depart="41.00" departLane="52o_0" departPos="5.10" departSpeed="0.00" departDelay="0.00" arrival="169.00" arrivalLane="51i_0" arrivalPos="10.00" arrivalSpeed="11.49" duration="128.00" routeLength="1015.10" waitSteps="23" timeLoss="52.10" rerouteNo="0" devices="tripinfo_left_11" vType="typeWE" speedFactor="1.00" vaporized=""/>
    <tripinfo id="right_17" depart="69.00" departLane="51o_0" departPos="5.10" departSpeed="0.00" departDelay="0.00" arrival="169.00" arrivalLane="52i_0" arrivalPos="10.00" arrivalSpeed="11.43" duration="100.00" routeLength="1015.10" waitSteps="0" timeLoss="24.00" rerouteNo="0" devices="tripinfo_right_17" vType="typeWE" speedFactor="1.00" vaporized=""/>
    <tripinfo id="left_13" depart="46.00" departLane="52o_0" departPos="5.10" departSpeed="0.00" departDelay="1.00" arrival="171.00" arrivalLane="51i_0" arrivalPos="10.00" arrivalSpeed="11.35" duration="125.00" routeLength="1015.10" waitSteps="20" timeLoss="48.88" rerouteNo="0" devices="tripinfo_left_13" vType="typeWE" speedFactor="1.00" vaporized=""/>
    <tripinfo id="left_14" depart="53.00" departLane="52o_0" departPos="5.10" departSpeed="0.00" departDelay="0.00" arrival="173.00" arrivalLane="51i_0" arrivalPos="10.00" arrivalSpeed="11.31" duration="120.00" routeLength="1015.10" waitSteps="14" timeLoss="44.09" rerouteNo="0" devices="tripinfo_left_14" vType="typeWE" speedFactor="1.00" vaporized=""/>
    <tripinfo id="left_19" depart="85.00" departLane="52o_0" departPos="5.10" departSpeed="0.00" departDelay="0.00" arrival="176.00" arrivalLane="51i_0" arrivalPos="10.00" arrivalSpeed="11.38" duration="91.00" routeLength="1015.10" waitSteps="0" timeLoss="15.06" rerouteNo="0" devices="tripinfo_left_19" vType="typeWE" speedFactor="1.00" vaporized=""/>
    <tripinfo id="right_18" depart="84.00" departLane="51o_0" departPos="5.10" departSpeed="0.00" departDelay="0.00" arrival="176.00" arrivalLane="52i_0" arrivalPos="10.00" arrivalSpeed="11.49" duration="92.00" routeLength="1015.10" waitSteps="0" timeLoss="15.84" rerouteNo="0" devices="tripinfo_right_18" vType="typeWE" speedFactor="1.00" vaporized=""/>
    <tripinfo id="left_23" depart="99.00" departLane="52o_0" departPos="5.10" departSpeed="0.00" departDelay="0.00" arrival="190.00" arrivalLane="51i_0" arrivalPos="10.00" arrivalSpeed="11.56" duration="91.00" routeLength="1015.10" waitSteps="0" timeLoss="14.71" rerouteNo="0" devices="tripinfo_left_23" vType="typeWE" speedFactor="1.00" vaporized=""/>
    <tripinfo id="right_22" depart="99.00" departLane="51o_0" departPos="5.10" departSpeed="0.00" departDelay="0.00" arrival="190.00" arrivalLane="52i_0" arrivalPos="10.00" arrivalSpeed="11.18" duration="91.00" routeLength="1015.10" waitSteps="0" timeLoss="14.88" rerouteNo="0" devices="tripinfo_right_22" vType="typeWE" speedFactor="1.00" vaporized=""/>
    <tripinfo id="down_20" depart="89.00" departLane="54o_0" departPos="7.10" departSpeed="0.00" departDelay="0.00" arrival="210.00" arrivalLane="53i_0" arrivalPos="10.00" arrivalSpeed="11.59" duration="121.00" routeLength="1013.10" waitSteps="22" timeLoss="49.26" rerouteNo="0" devices="tripinfo_down_20" vType="typeNS" speedFactor="1.00" vaporized=""/>
    <tripinfo id="down_21" depart="96.00" departLane="54o_0" departPos="7.10" departSpeed="0.00" departDelay="0.00" arrival="212.00" arrivalLane="53i_0" arrivalPos="10.00" arrivalSpeed="11.30" duration="116.00" routeLength="1013.10" waitSteps="14" timeLoss="44.34" rerouteNo="0" devices="tripinfo_down_21" vType="typeNS" speedFactor="1.00" vaporized=""/>
    <tripinfo id="down_26" depart="122.00" departLane="54o_0" departPos="7.10" departSpeed="0.00" departDelay="0.00" arrival="214.00" arrivalLane="53i_0" arrivalPos="10.00" arrivalSpeed="11.26" duration="92.00" routeLength="1013.10" waitSteps="0" timeLoss="20.15" rerouteNo="0" devices="tripinfo_down_26" vType="typeNS" speedFactor="1.00" vaporized=""/>
    <tripinfo id="left_28" depart="131.00" departLane="52o_0" departPos="5.10" departSpeed="0.00" departDelay="0.00" arrival="260.00" arrivalLane="51i_0" arrivalPos="10.00" arrivalSpeed="11.52" duration="129.00" routeLength="1015.10" waitSteps="27" timeLoss="53.22" rerouteNo="0" devices="tripinfo_left_28" vType="typeWE" speedFactor="1.00" vaporized=""/>
    <tripinfo id="right_24" depart="108.00" departLane="51o_0" departPos="5.10" departSpeed="0.00" departDelay="0.00" arrival="260.00" arrivalLane="52i_0" arrivalPos="10.00" arrivalSpeed="11.58" duration="152.00" routeLength="1015.10" waitSteps="50" timeLoss="75.85" rerouteNo="0" devices="tripinfo_right_24" vType="typeWE" speedFactor="1.00" vaporized=""/>
    <tripinfo id="left_29" depart="136.00" departLane="52o_0" departPos="5.10" departSpeed="0.00" departDelay="1.00" arrival="262.00" arrivalLane="51i_0" arrivalPos="10.00" arrivalSpeed="10.98" duration="126.00" routeLength="1015.10" waitSteps="21" timeLoss="49.98" rerouteNo="0" devices="tripinfo_left_29" vType="typeWE" speedFactor="1.00" vaporized=""/>
    <tripinfo id="right_25" depart="114.00" departLane="51o_0" departPos="5.10" departSpeed="0.00" departDelay="0.00" arrival="262.00" arrivalLane="52i_0" arrivalPos="10.00" arrivalSpeed="11.37" duration="148.00" routeLength="1015.10" waitSteps="46" timeLoss="71.97" rerouteNo="0" devices="tripinfo_right_25" vType="typeWE" speedFactor="1.00" vaporized=""/>
    <tripinfo id="left_30" depart="142.00" departLane="52o_0" departPos="5.10" departSpeed="0.00" departDelay="4.00" arrival="264.00" arrivalLane="51i_0" arrivalPos="10.00" arrivalSpeed="11.44" duration="122.00" routeLength="1015.10" waitSteps="19" timeLoss="46.13" rerouteNo="0" devices="tripinfo_left_30" vType="typeWE" speedFactor="1.00" vaporized=""/>
    <tripinfo id="right_27" depart="125.00" departLane="51o_0" departPos="5.10" departSpeed="0.00" departDelay="0.00" arrival="264.00" arrivalLane="52i_0" arrivalPos="10.00" arrivalSpeed="11.59" duration="139.00" routeLength="1015.10" waitSteps="36" timeLoss="63.07" rerouteNo="0" devices="tripinfo_right_27" vType="typeWE" speedFactor="1.00" vaporized=""/>
    <tripinfo id="left_31" depart="147.00" departLane="52o_0" departPos="5.10" departSpeed="0.00" departDelay="5.00" arrival="266.00" arrivalLane="51i_0" arrivalPos="10.00" arrivalSpeed="11.62" duration="119.00" routeLength="1015.10" waitSteps="15" timeLoss="43.07" rerouteNo="0" devices="tripinfo_left_31" vType="typeWE" speedFactor="1.00" vaporized=""/>
    <tripinfo id="right_32" depart="145.00" departLane="51o_0" departPos="5.10" departSpeed="0.00" departDelay="0.00" arrival="267.00" arrivalLane="52i_0" arrivalPos="10.00" arrivalSpeed="11.72" duration="122.00" routeLength="1015.10" waitSteps="17" timeLoss="46.04" rerouteNo="0" devices="tripinfo_right_32" vType="typeWE" speedFactor="1.00" vaporized=""/>
    <tripinfo id="left_33" depart="153.00" departLane="52o_0" departPos="5.10" departSpeed="0.00" departDelay="0.00" arrival="268.00" arrivalLane="51i_0" arrivalPos="10.00" arrivalSpeed="11.78" duration="115.00" routeLength="1015.10" waitSteps="12" timeLoss="39.14" rerouteNo="0" devices="tripinfo_left_33" vType="typeWE" speedFactor="1.00" vaporized=""/>
    <tripinfo id="right_37" depart="167.00" departLane="51o_0" departPos="5.10" departSpeed="0.00" departDelay="0.00" arrival="269.00" arrivalLane="52i_0" arrivalPos="10.00" arrivalSpeed="11.53" duration="102.00" routeLength="1015.10" waitSteps="0" timeLoss="25.84" rerouteNo="0" devices="tripinfo_right_37" vType="typeWE" speedFactor="1.00" vaporized=""/>
    <tripinfo id="left_34" depart="158.00" departLane="52o_0" departPos="5.10" departSpeed="0.00" departDelay="2.00" arrival="270.00" arrivalLane="51i_0" arrivalPos="10.00" arrivalSpeed="11.58" duration="112.00" routeLength="1015.10" waitSteps="9" timeLoss="36.04" rerouteNo="0" devices="tripinfo_left_34" vType="typeWE" speedFactor="1.00" vaporized=""/>
    <tripinfo id="right_38" depart="173.00" departLane="51o_0" departPos="5.10" departSpeed="0.00" departDelay="5.00" arrival="271.00" arrivalLane="52i_0" arrivalPos="10.00" arrivalSpeed="11.69" duration="98.00" routeLength="1015.10" waitSteps="0" timeLoss="21.56" rerouteNo="0" devices="tripinfo_right_38" vType="typeWE" speedFactor="1.00" vaporized=""/>
    <tripinfo id="left_35" depart="167.00" departLane="52o_0" departPos="5.10" departSpeed="0.00" departDelay="7.00" arrival="273.00" arrivalLane="51i_0" arrivalPos="10.00" arrivalSpeed="11.58" duration="106.00" routeLength="1015.10" waitSteps="1" timeLoss="29.45" rerouteNo="0" devices="tripinfo_left_35" vType="typeWE" speedFactor="1.00" vaporized=""/>
    <tripinfo id="right_42" depart="178.00" departLane="51o_0" departPos="5.10" departSpeed="0.00" departDelay="2.00" arrival="273.00" arrivalLane="52i_0" arrivalPos="10.00" arrivalSpeed="11.55" duration="95.00" routeLength="1015.10" waitSteps="0" timeLoss="18.35" rerouteNo="0" devices="tripinfo_right_42" vType="typeWE" speedFactor="1.00" vaporized=""/>
    <tripinfo id="left_36" depart="172.00" departLane="52o_0" departPos="5.10" departSpeed="0.00" departDelay="8.00" arrival="274.00" arrivalLane="51i_0" arrivalPos="10.00" arrivalSpeed="11.48" duration="102.00" routeLength="1015.10" waitSteps="0" timeLoss="26.23" rerouteNo="0" devices="tripinfo_left_36" vType="typeWE" speedFactor="1.00" vaporized=""/>
    <tripinfo id="right_43" depart="183.00" departLane="51o_0" departPos="5.10" departSpeed="0.00" departDelay="2.00" arrival="275.00" arrivalLane="52i_0" arrivalPos="10.00" arrivalSpeed="11.64" duration="92.00" routeLength="1015.10" waitSteps="0" timeLoss="15.98" rerouteNo="0" devices="tripinfo_right_43" vType="typeWE" speedFactor="1.00" vaporized=""/>
    <tripinfo id="left_39" depart="177.00" departLane="52o_0" departPos="5.10" departSpeed="0.00" departDelay="8.00" arrival="277.00" arrivalLane="51i_0" arrivalPos="10.00" arrivalSpeed="11.55" duration="100.00" routeLength="1015.10" waitSteps="0" timeLoss="23.41" rerouteNo="0" devices="tripinfo_left_39" vType="typeWE" speedFactor="1.00" vaporized=""/>
    <tripinfo id="left_40" depart="182.00" departLane="52o_0" departPos="5.10" departSpeed="0.00" departDelay="10.00" arrival="279.00" arrivalLane="51i_0" arrivalPos="10.00" arrivalSpeed="11.56" duration="97.00" routeLength="1015.10" waitSteps="0" timeLoss="20.35" rerouteNo="0" devices="tripinfo_left_40" vType="typeWE" speedFactor="1.00" vaporized=""/>
    <tripinfo id="right_44" depart="190.00" departLane="51o_0" departPos="5.10" departSpeed="0.00" departDelay="7.00" arrival="282.00" arrivalLane="52i_0" arrivalPos="10.00" arrivalSpeed="11.61" duration="92.00" routeLength="1015.10" waitSteps="0" timeLoss="15.33" rerouteNo="0" devices="tripinfo_right_44" vType="typeWE" speedFactor="1.00" vaporized=""/>
    <tripinfo id="left_45" depart="194.00" departLane="52o_0" departPos="5.10" departSpeed="0.00" departDelay="0.00" arrival="285.00" arrivalLane="51i_0" arrivalPos="10.00" arrivalSpeed="11.58" duration="91.00" routeLength="1015.10" waitSteps="0" timeLoss="14.74" rerouteNo="0" devices="tripinfo_left_45" vType="typeWE" speedFactor="1.00" vaporized=""/>
    <tripinfo id="left_46" depart="199.00" departLane="52o_0" departPos="5.10" departSpeed="0.00" departDelay="3.00" arrival="291.00" arrivalLane="51i_0" arrivalPos="10.00" arrivalSpeed="11.48" duration="92.00" routeLength="1015.10" waitSteps="0" timeLoss="15.99" rerouteNo="0" devices="tripinfo_left_46" vType="typeWE" speedFactor="1.00" vaporized=""/>
    <tripinfo id="right_48" depart="200.00" departLane="51o_0" departPos="5.10" departSpeed="0.00" departDelay="0.00" arrival="291.00" arrivalLane="52i_0" arrivalPos="10.00" arrivalSpeed="11.62" duration="91.00" routeLength="1015.10" waitSteps="0" timeLoss="14.68" rerouteNo="0" devices="tripinfo_right_48" vType="typeWE" speedFactor="1.00" vaporized=""/>
    <tripinfo id="left_47" depart="204.00" departLane="52o_0" departPos="5.10" departSpeed="0.00" departDelay="5.00" arrival="295.00" arrivalLane="51i_0" arrivalPos="10.00" arrivalSpeed="11.43" duration="91.00" routeLength="1015.10" waitSteps="0" timeLoss="14.74" rerouteNo="0" devices="tripinfo_left_47" vType="typeWE" speedFactor="1.00" vaporized=""/>
    <tripinfo id="down_41" depart="172.00" departLane="54o_0" departPos="7.10" departSpeed="0.00" departDelay="0.00" arrival="312.00" arrivalLane="53i_0" arrivalPos="10.00" arrivalSpeed="11.38" duration="140.00" routeLength="1013.10" waitSteps="40" timeLoss="68.13" rerouteNo="0" devices="tripinfo_down_41" vType="typeNS" speedFactor="1.00" vaporized=""/>
    <tripinfo id="down_55" depart="238.00" departLane="54o_0" departPos="7.10" departSpeed="0.00" departDelay="0.00" arrival="326.00" arrivalLane="53i_0" arrivalPos="10.00" arrivalSpeed="10.85" duration="88.00" routeLength="1013.10" waitSteps="0" timeLoss="16.19" rerouteNo="0" devices="tripinfo_down_55" vType="typeNS" speedFactor="1.00" vaporized=""/>
    <tripinfo id="down_57" depart="244.00" departLane="54o_0" departPos="7.10" departSpeed="0.00" departDelay="2.00" arrival="333.00" arrivalLane="53i_0" arrivalPos="10.00" arrivalSpeed="11.57" duration="89.00" routeLength="1013.10" waitSteps="0" timeLoss="17.35" rerouteNo="0" devices="tripinfo_down_57" vType="typeNS" speedFactor="1.00" vaporized=""/>
    <tripinfo id="left_49" depart="212.00" departLane="52o_0" departPos="5.10" departSpeed="0.00" departDelay="0.00" arrival="362.00" arrivalLane="51i_0" arrivalPos="10.00" arrivalSpeed="11.70" duration="150.00" routeLength="1015.10" waitSteps="47" timeLoss="74.07" rerouteNo="0" devices="tripinfo_left_49" vType="typeWE" speedFactor="1.00" vaporized=""/>
    <tripinfo id="right_50" depart="217.00" departLane="51o_0" departPos="5.10" departSpeed="0.00" departDelay="0.00" arrival="362.00" arrivalLane="52i_0" arrivalPos="10.00" arrivalSpeed="11.45" duration="145.00" routeLength="1015.10" waitSteps="42" timeLoss="69.15" rerouteNo="0" devices="tripinfo_right_50" vType="typeWE" speedFactor="1.00" vaporized=""/>
    <tripinfo id="left_51" depart="219.00" departLane="52o_0" departPos="5.10" departSpeed="0.00" departDelay="0.00" arrival="364.00" arrivalLane="51i_0" arrivalPos="10.00" arrivalSpeed="11.09" duration="145.00" routeLength="1015.10" waitSteps="43" timeLoss="69.03" rerouteNo="0" devices="tripinfo_left_51" vType="typeWE" speedFactor="1.00" vaporized=""/>
    <tripinfo id="right_52" depart="228.00" departLane="51o_0" departPos="5.10" departSpeed="0.00" departDelay="0.00" arrival="366.00" arrivalLane="52i_0" arrivalPos="10.00" arrivalSpeed="11.43" duration="138.00" routeLength="1015.10" waitSteps="35" timeLoss="61.51" rerouteNo="0" devices="tripinfo_right_52" vType="typeWE" speedFactor="1.00" vaporized=""/>
    <tripinfo id="right_56" depart="240.00" departLane="51o_0" departPos="5.10" departSpeed="0.00" departDelay="0.00" arrival="367.00" arrivalLane="52i_0" arrivalPos="10.00" arrivalSpeed="11.04" duration="127.00" routeLength="1015.10" waitSteps="24" timeLoss="51.03" rerouteNo="0" devices="tripinfo_right_56" vType="typeWE" speedFactor="1.00" vaporized=""/>
    <tripinfo id="left_53" depart="234.00" departLane="52o_0" departPos="5.10" departSpeed="0.00" departDelay="0.00" arrival="367.00" arrivalLane="51i_0" arrivalPos="10.00" arrivalSpeed="11.66" duration="133.00" routeLength="1015.10" waitSteps="28" timeLoss="56.42" rerouteNo="0" devices="tripinfo_left_53" vType="typeWE" speedFactor="1.00" vaporized=""/>
    <tripinfo id="left_54" depart="239.00" departLane="52o_0" departPos="5.10" departSpeed="0.00" departDelay="1.00" arrival="369.00" arrivalLane="51i_0" arrivalPos="10.00" arrivalSpeed="11.74" duration="130.00" routeLength="1015.10" waitSteps="25" timeLoss="54.01" rerouteNo="0" devices="tripinfo_left_54" vType="typeWE" speedFactor="1.00" vaporized=""/>
    <tripinfo id="left_58" depart="273.00" departLane="52o_0" departPos="5.10" departSpeed="0.00" departDelay="1.00" arrival="371.00" arrivalLane="51i_0" arrivalPos="10.00" arrivalSpeed="10.98" duration="98.00" routeLength="1015.10" waitSteps="0" timeLoss="21.92" rerouteNo="0" devices="tripinfo_left_58" vType="typeWE" speedFactor="1.00" vaporized=""/>
    <tripinfo id="left_59" depart="278.00" departLane="52o_0" departPos="5.10" departSpeed="0.00" departDelay="3.00" arrival="373.00" arrivalLane="51i_0" arrivalPos="10.00" arrivalSpeed="11.55" duration="95.00" routeLength="1015.10" waitSteps="0" timeLoss="19.02" rerouteNo="0" devices="tripinfo_left_59" vType="typeWE" speedFactor="1.00" vaporized=""/>
    <tripinfo id="right_61" depart="285.00" departLane="51o_0" departPos="5.10" departSpeed="0.00" departDelay="1.00" arrival="377.00" arrivalLane="52i_0" arrivalPos="10.00" arrivalSpeed="11.31" duration="92.00" routeLength="1015.10" waitSteps="0" timeLoss="15.73" rerouteNo="0" devices="tripinfo_right_61" vType="typeWE" speedFactor="1.00" vaporized=""/>
    <tripinfo id="right_62" depart="291.00" departLane="51o_0" departPos="5.10" departSpeed="0.00" departDelay="5.00" arrival="382.00" arrivalLane="52i_0" arrivalPos="10.00" arrivalSpeed="11.49" duration="91.00" routeLength="1015.10" waitSteps="0" timeLoss="14.62" rerouteNo="0" devices="tripinfo_right_62" vType="typeWE" speedFactor="1.00" vaporized=""/>
    <tripinfo id="right_63" depart="296.00" departLane="51o_0" departPos="5.10" departSpeed="0.00" departDelay="8.00" arrival="388.00" arrivalLane="52i_0" arrivalPos="10.00" arrivalSpeed="11.61" duration="92.00" routeLength="1015.10" waitSteps="0" timeLoss="15.79" rerouteNo="0" devices="tripinfo_right_63" vType="typeWE" speedFactor="1.00" vaporized=""/>
    <tripinfo id="right_64" depart="301.00" departLane="51o_0" departPos="5.10" departSpeed="0.00" departDelay="10.00" arrival="392.00" arrivalLane="52i_0" arrivalPos="10.00" arrivalSpeed="11.64" duration="91.00" routeLength="1015.10" waitSteps="0" timeLoss="14.98" rerouteNo="0" devices="tripinfo_right_64" vType="typeWE" speedFactor="1.00" vaporized=""/>
    <tripinfo id="right_65" depart="306.00" departLane="51o_0" departPos="5.10" departSpeed="0.00" departDelay="12.00" arrival="397.00" arrivalLane="52i_0" arrivalPos="10.00" arrivalSpeed="11.25" duration="91.00" routeLength="1015.10" waitSteps="0" timeLoss="14.68" rerouteNo="0" devices="tripinfo_right_65" vType="typeWE" speedFactor="1.00" vaporized=""/>
    <tripinfo id="down_60" depart="283.00" departLane="54o_0" departPos="7.10" departSpeed="0.00" departDelay="0.00" arrival="414.00" arrivalLane="53i_0" arrivalPos="10.00" arrivalSpeed="11.78" duration="131.00" routeLength="1013.10" waitSteps="29" timeLoss="59.12" rerouteNo="0" devices="tripinfo_down_60" vType="typeNS" speedFactor="1.00" vaporized=""/>
    <tripinfo id="down_66" depart="302.00" departLane="54o_0" departPos="7.10" departSpeed="0.00" departDelay="0.00" arrival="416.00" arrivalLane="53i_0" arrivalPos="10.00" arrivalSpeed="11.29" duration="114.00" routeLength="1013.10" waitSteps="12" timeLoss="42.11" rerouteNo="0" devices="tripinfo_down_66" vType="typeNS" speedFactor="1.00" vaporized=""/>
    <tripinfo id="down_67" depart="318.00" departLane="54o_0" departPos="7.10" departSpeed="0.00" departDelay="0.00" arrival="418.00" arrivalLane="53i_0" arrivalPos="10.00" arrivalSpeed="10.77" duration="100.00" routeLength="1013.10" waitSteps="0" timeLoss="28.41" rerouteNo="0" devices="tripinfo_down_67" vType="typeNS" speedFactor="1.00" vaporized=""/>
    <tripinfo id="down_69" depart="331.00" departLane="54o_0" departPos="7.10" departSpeed="0.00" departDelay="0.00" arrival="421.00" arrivalLane="53i_0" arrivalPos="10.00" arrivalSpeed="11.26" duration="90.00" routeLength="1013.10" waitSteps="0" timeLoss="17.72" rerouteNo="0" devices="tripinfo_down_69" vType="typeNS" speedFactor="1.00" vaporized=""/>
    <tripinfo id="down_70" depart="337.00" departLane="54o_0" departPos="7.10" departSpeed="0.00" departDelay="0.00" arrival="426.00" arrivalLane="53i_0" arrivalPos="10.00" arrivalSpeed="11.57" duration="89.00" routeLength="1013.10" waitSteps="0" timeLoss="17.30" rerouteNo="0" devices="tripinfo_down_70" vType="typeNS" speedFactor="1.00" vaporized=""/>
    <tripinfo id="down_74" depart="344.00" departLane="54o_0" departPos="7.10" departSpeed="0.00" departDelay="0.00" arrival="434.00" arrivalLane="53i_0" arrivalPos="10.00" arrivalSpeed="11.39" duration="90.00" routeLength="1013.10" waitSteps="0" timeLoss="18.27" rerouteNo="0" devices="tripinfo_down_74" vType="typeNS" speedFactor="1.00" vaporized=""/>
    <tripinfo id="down_76" depart="350.00" departLane="54o_0" departPos="7.10" departSpeed="0.00" departDelay="1.00" arrival="439.00" arrivalLane="53i_0" arrivalPos="10.00" arrivalSpeed="11.04" duration="89.00" routeLength="1013.10" waitSteps="0" timeLoss="17.26" rerouteNo="0" devices="tripinfo_down_76" vType="typeNS" speedFactor="1.00" vaporized=""/>
    <tripinfo id="right_68" depart="322.00" departLane="51o_0" departPos="5.10" departSpeed="0.00" departDelay="0.00" arrival="465.00" arrivalLane="52i_0" arrivalPos="10.00" arrivalSpeed="11.40" duration="143.00" routeLength="1015.10" waitSteps="40" timeLoss="66.53" rerouteNo="0" devices="tripinfo_right_68" vType="typeWE" speedFactor="1.00" vaporized=""/>
    <tripinfo id="left_71" depart="339.00" departLane="52o_0" departPos="5.10" departSpeed="0.00" departDelay="0.00" arrival="465.00" arrivalLane="51i_0" arrivalPos="10.00" arrivalSpeed="11.47" duration="126.00" routeLength="1015.10" waitSteps="23" timeLoss="49.72" rerouteNo="0" devices="tripinfo_left_71" vType="typeWE" speedFactor="1.00" vaporized=""/>
    <tripinfo id="right_72" depart="342.00" departLane="51o_0" departPos="5.10" departSpeed="0.00" departDelay="0.00" arrival="467.00" arrivalLane="52i_0" arrivalPos="10.00" arrivalSpeed="11.67" duration="125.00" routeLength="1015.10" waitSteps="22" timeLoss="48.49" rerouteNo="0" devices="tripinfo_right_72" vType="typeWE" speedFactor="1.00" vaporized=""/>
    <tripinfo id="left_73" depart="344.00" departLane="52o_0" departPos="5.10" departSpeed="0.00" departDelay="0.00" arrival="467.00" arrivalLane="51i_0" arrivalPos="10.00" arrivalSpeed="11.14" duration="123.00" routeLength="1015.10" waitSteps="19" timeLoss="46.56" rerouteNo="0" devices="tripinfo_left_73" vType="typeWE" speedFactor="1.00" vaporized=""/>
    <tripinfo id="right_77" depart="354.00" departLane="51o_0" departPos="5.10" departSpeed="0.00" departDelay="0.00" arrival="469.00" arrivalLane="52i_0" arrivalPos="10.00" arrivalSpeed="11.62" duration="115.00" routeLength="1015.10" waitSteps="11" timeLoss="38.54" rerouteNo="0" devices="tripinfo_right_77" vType="typeWE" speedFactor="1.00" vaporized=""/>
    <tripinfo id="left_75" depart="349.00" departLane="52o_0" departPos="5.10" departSpeed="0.00" departDelay="3.00" arrival="469.00" arrivalLane="51i_0" arrivalPos="10.00" arrivalSpeed="11.67" duration="120.00" routeLength="1015.10" waitSteps="16" timeLoss="43.39" rerouteNo="0" devices="tripinfo_left_75" vType="typeWE" speedFactor="1.00" vaporized=""/>
    <tripinfo id="right_78" depart="375.00" departLane="51o_0" departPos="5.10" departSpeed="0.00" departDelay="0.00" arrival="471.00" arrivalLane="52i_0" arrivalPos="10.00" arrivalSpeed="11.47" duration="96.00" routeLength="1015.10" waitSteps="0" timeLoss="19.27" rerouteNo="0" devices="tripinfo_right_78" vType="typeWE" speedFactor="1.00" vaporized=""/>
    <tripinfo id="right_81" depart="383.00" departLane="51o_0" departPos="5.10" departSpeed="0.00" departDelay="0.00" arrival="475.00" arrivalLane="52i_0" arrivalPos="10.00" arrivalSpeed="11.51" duration="92.00" routeLength="1015.10" waitSteps="0" timeLoss="15.90" rerouteNo="0" devices="tripinfo_right_81" vType="typeWE" speedFactor="1.00" vaporized=""/>
    <tripinfo id="left_82" depart="388.00" departLane="52o_0" departPos="5.10" departSpeed="0.00" departDelay="0.00" arrival="479.00" arrivalLane="51i_0" arrivalPos="10.00" arrivalSpeed="11.63" duration="91.00" routeLength="1015.10" waitSteps="0" timeLoss="14.62" rerouteNo="0" devices="tripinfo_left_82" vType="typeWE" speedFactor="1.00" vaporized=""/>