<?xml version="1.0" encoding="UTF-8"?>

<!-- generated on Thu Mar 15 01:05:36 2018 by SUMO Version 0.32.0
<?xml version="1.0" encoding="UTF-8"?>

<configuration xmlns:xsi="http://www.w3.org/2001/XMLSchema-instance" xsi:noNamespaceSchemaLocation="http://sumo.dlr.de/xsd/sumoConfiguration.xsd">

    <input>
        <net-file value="data/cross.net.xml"/>
        <route-files value="data/cross.rou.xml"/>
        <additional-files value="data/cross.det.xml,data/cross.det2.xml"/>
    </input>

    <output>
        <tripinfo-output value="fgreen=10_tripinfo.xml"/>
    </output>

    <time>
        <begin value="0"/>
    </time>

    <report>
        <verbose value="true"/>
        <error-log value="errors"/>
        <no-step-log value="true"/>
    </report>

    <traci_server>
        <remote-port value="54359"/>
    </traci_server>

</configuration>
-->

<tripinfos xmlns:xsi="http://www.w3.org/2001/XMLSchema-instance" xsi:noNamespaceSchemaLocation="http://sumo.dlr.de/xsd/tripinfo_file.xsd">
    <tripinfo id="down_6" depart="13.00" departLane="54o_0" departPos="7.10" departSpeed="0.00" departDelay="0.00" arrival="103.00" arrivalLane="53i_0" arrivalPos="10.00" arrivalSpeed="11.68" duration="90.00" routeLength="1013.10" waitSteps="0" timeLoss="18.26" rerouteNo="0" devices="tripinfo_down_6" vType="typeNS" speedFactor="1.00" vaporized=""/>
    <tripinfo id="left_0" depart="0.00" departLane="52o_0" departPos="5.10" departSpeed="0.00" departDelay="0.00" arrival="121.00" arrivalLane="51i_0" arrivalPos="10.00" arrivalSpeed="11.39" duration="121.00" routeLength="1015.10" waitSteps="18" timeLoss="44.58" rerouteNo="0" devices="tripinfo_left_0" vType="typeWE" speedFactor="1.00" vaporized=""/>
    <tripinfo id="right_2" depart="3.00" departLane="51o_0" departPos="5.10" departSpeed="0.00" departDelay="0.00" arrival="122.00" arrivalLane="52i_0" arrivalPos="10.00" arrivalSpeed="11.57" duration="119.00" routeLength="1015.10" waitSteps="15" timeLoss="42.59" rerouteNo="0" devices="tripinfo_right_2" vType="typeWE" speedFactor="1.00" vaporized=""/>
    <tripinfo id="left_1" depart="5.00" departLane="52o_0" departPos="5.10" departSpeed="0.00" departDelay="3.00" arrival="123.00" arrivalLane="51i_0" arrivalPos="10.00" arrivalSpeed="11.24" duration="118.00" routeLength="1015.10" waitSteps="14" timeLoss="41.65" rerouteNo="0" devices="tripinfo_left_1" vType="typeWE" speedFactor="1.00" vaporized=""/>
    <tripinfo id="right_3" depart="8.00" departLane="51o_0" departPos="5.10" departSpeed="0.00" departDelay="4.00" arrival="124.00" arrivalLane="52i_0" arrivalPos="10.00" arrivalSpeed="11.36" duration="116.00" routeLength="1015.10" waitSteps="11" timeLoss="39.49" rerouteNo="0" devices="tripinfo_right_3" vType="typeWE" speedFactor="1.00" vaporized=""/>
    <tripinfo id="left_4" depart="10.00" departLane="52o_0" departPos="5.10" departSpeed="0.00" departDelay="4.00" arrival="125.00" arrivalLane="51i_0" arrivalPos="10.00" arrivalSpeed="11.46" duration="115.00" routeLength="1015.10" waitSteps="12" timeLoss="38.49" rerouteNo="0" devices="tripinfo_left_4" vType="typeWE" speedFactor="1.00" vaporized=""/>
    <tripinfo id="right_5" depart="13.00" departLane="51o_0" departPos="5.10" departSpeed="0.00" departDelay="4.00" arrival="126.00" arrivalLane="52i_0" arrivalPos="10.00" arrivalSpeed="11.33" duration="113.00" routeLength="1015.10" waitSteps="8" timeLoss="36.45" rerouteNo="0" devices="tripinfo_right_5" vType="typeWE" speedFactor="1.00" vaporized=""/>
    <tripinfo id="down_8" depart="29.00" departLane="54o_0" departPos="7.10" departSpeed="0.00" departDelay="0.00" arrival="136.00" arrivalLane="53i_0" arrivalPos="10.00" arrivalSpeed="11.48" duration="107.00" routeLength="1013.10" waitSteps="6" timeLoss="35.55" rerouteNo="0" devices="tripinfo_down_8" vType="typeNS" speedFactor="1.00" vaporized=""/>
    <tripinfo id="left_7" depart="22.00" departLane="52o_0" departPos="5.10" departSpeed="0.00" departDelay="0.00" arrival="152.00" arrivalLane="51i_0" arrivalPos="10.00" arrivalSpeed="11.42" duration="130.00" routeLength="1015.10" waitSteps="19" timeLoss="53.97" rerouteNo="0" devices="tripinfo_left_7" vType="typeWE" speedFactor="1.00" vaporized=""/>
    <tripinfo id="right_12" depart="42.00" departLane="51o_0" departPos="5.10" departSpeed="0.00" departDelay="0.00" arrival="153.00" arrivalLane="52i_0" arrivalPos="10.00" arrivalSpeed="11.41" duration="111.00" routeLength="1015.10" waitSteps="7" timeLoss="34.70" rerouteNo="0" devices="tripinfo_right_12" vType="typeWE" speedFactor="1.00" vaporized=""/>
    <tripinfo id="left_9" depart="31.00" departLane="52o_0" departPos="5.10" departSpeed="0.00" departDelay="0.00" arrival="154.00" arrivalLane="51i_0" arrivalPos="10.00" arrivalSpeed="11.35" duration="123.00" routeLength="1015.10" waitSteps="17" timeLoss="47.02" rerouteNo="0" devices="tripinfo_left_9" vType="typeWE" speedFactor="1.00" vaporized=""/>
    <tripinfo id="right_15" depart="55.00" departLane="51o_0" departPos="5.10" departSpeed="0.00" departDelay="0.00" arrival="155.00" arrivalLane="52i_0" arrivalPos="10.00" arrivalSpeed="11.76" duration="100.00" routeLength="1015.10" waitSteps="0" timeLoss="23.48" rerouteNo="0" devices="tripinfo_right_15" vType="typeWE" speedFactor="1.00" vaporized=""/>
    <tripinfo id="left_10" depart="36.00" departLane="52o_0" departPos="5.10" departSpeed="0.00" departDelay="3.00" arrival="156.00" arrivalLane="51i_0" arrivalPos="10.00" arrivalSpeed="11.74" duration="120.00" routeLength="1015.10" waitSteps="16" timeLoss="43.80" rerouteNo="0" devices="tripinfo_left_10" vType="typeWE" speedFactor="1.00" vaporized=""/>
    <tripinfo id="right_16" depart="61.00" departLane="51o_0" departPos="5.10" departSpeed="0.00" departDelay="0.00" arrival="157.00" arrivalLane="52i_0" arrivalPos="10.00" arrivalSpeed="11.38" duration="96.00" routeLength="1015.10" waitSteps="0" timeLoss="19.48" rerouteNo="0" devices="tripinfo_right_16" vType="typeWE" speedFactor="1.00" vaporized=""/>
    <tripinfo id="left_11" depart="41.00" departLane="52o_0" departPos="5.10" departSpeed="0.00" departDelay="0.00" arrival="184.00" arrivalLane="51i_0" arrivalPos="10.00" arrivalSpeed="11.53" duration="143.00" routeLength="1015.10" waitSteps="32" timeLoss="66.81" rerouteNo="0" devices="tripinfo_left_11" vType="typeWE" speedFactor="1.00" vaporized=""/>
    <tripinfo id="right_17" depart="69.00" departLane="51o_0" departPos="5.10" departSpeed="0.00" departDelay="0.00" arrival="184.00" arrivalLane="52i_0" arrivalPos="10.00" arrivalSpeed="11.37" duration="115.00" routeLength="1015.10" waitSteps="13" timeLoss="39.16" rerouteNo="0" devices="tripinfo_right_17" vType="typeWE" speedFactor="1.00" vaporized=""/>
    <tripinfo id="left_13" depart="46.00" departLane="52o_0" departPos="5.10" departSpeed="0.00" departDelay="1.00" arrival="186.00" arrivalLane="51i_0" arrivalPos="10.00" arrivalSpeed="11.41" duration="140.00" routeLength="1015.10" waitSteps="26" timeLoss="64.07" rerouteNo="0" devices="tripinfo_left_13" vType="typeWE" speedFactor="1.00" vaporized=""/>
    <tripinfo id="right_18" depart="84.00" departLane="51o_0" departPos="5.10" departSpeed="0.00" departDelay="0.00" arrival="187.00" arrivalLane="52i_0" arrivalPos="10.00" arrivalSpeed="11.46" duration="103.00" routeLength="1015.10" waitSteps="0" timeLoss="26.73" rerouteNo="0" devices="tripinfo_right_18" vType="typeWE" speedFactor="1.00" vaporized=""/>
    <tripinfo id="left_14" depart="53.00" departLane="52o_0" departPos="5.10" departSpeed="0.00" departDelay="0.00" arrival="189.00" arrivalLane="51i_0" arrivalPos="10.00" arrivalSpeed="11.42" duration="136.00" routeLength="1015.10" waitSteps="22" timeLoss="59.99" rerouteNo="0" devices="tripinfo_left_14" vType="typeWE" speedFactor="1.00" vaporized=""/>
    <tripinfo id="down_20" depart="89.00" departLane="54o_0" departPos="7.10" departSpeed="0.00" departDelay="0.00" arrival="201.00" arrivalLane="53i_0" arrivalPos="10.00" arrivalSpeed="11.42" duration="112.00" routeLength="1013.10" waitSteps="12" timeLoss="40.13" rerouteNo="0" devices="tripinfo_down_20" vType="typeNS" speedFactor="1.00" vaporized=""/>
    <tripinfo id="down_21" depart="96.00" departLane="54o_0" departPos="7.10" departSpeed="0.00" departDelay="0.00" arrival="203.00" arrivalLane="53i_0" arrivalPos="10.00" arrivalSpeed="11.77" duration="107.00" routeLength="1013.10" waitSteps="7" timeLoss="35.26" rerouteNo="0" devices="tripinfo_down_21" vType="typeNS" speedFactor="1.00" vaporized=""/>
    <tripinfo id="right_22" depart="99.00" departLane="51o_0" departPos="5.10" departSpeed="0.00" departDelay="0.00" arrival="216.00" arrivalLane="52i_0" arrivalPos="10.00" arrivalSpeed="11.45" duration="117.00" routeLength="1015.10" waitSteps="16" timeLoss="40.94" rerouteNo="0" devices="tripinfo_right_22" vType="typeWE" speedFactor="1.00" vaporized=""/>
    <tripinfo id="left_19" depart="85.00" departLane="52o_0" departPos="5.10" departSpeed="0.00" departDelay="0.00" arrival="217.00" arrivalLane="51i_0" arrivalPos="10.00" arrivalSpeed="11.43" duration="132.00" routeLength="1015.10" waitSteps="21" timeLoss="55.54" rerouteNo="0" devices="tripinfo_left_19" vType="typeWE" speedFactor="1.00" vaporized=""/>
    <tripinfo id="right_24" depart="108.00" departLane="51o_0" departPos="5.10" departSpeed="0.00" departDelay="0.00" arrival="218.00" arrivalLane="52i_0" arrivalPos="10.00" arrivalSpeed="11.53" duration="110.00" routeLength="1015.10" waitSteps="8" timeLoss="33.88" rerouteNo="0" devices="tripinfo_right_24" vType="typeWE" speedFactor="1.00" vaporized=""/>
    <tripinfo id="left_23" depart="99.00" departLane="52o_0" departPos="5.10" departSpeed="0.00" departDelay="0.00" arrival="219.00" arrivalLane="51i_0" arrivalPos="10.00" arrivalSpeed="11.84" duration="120.00" routeLength="1015.10" waitSteps="18" timeLoss="43.74" rerouteNo="0" devices="tripinfo_left_23" vType="typeWE" speedFactor="1.00" vaporized=""/>
    <tripinfo id="right_25" depart="114.00" departLane="51o_0" departPos="5.10" departSpeed="0.00" departDelay="0.00" arrival="221.00" arrivalLane="52i_0" arrivalPos="10.00" arrivalSpeed="11.65" duration="107.00" routeLength="1015.10" waitSteps="3" timeLoss="30.66" rerouteNo="0" devices="tripinfo_right_25" vType="typeWE" speedFactor="1.00" vaporized=""/>
    <tripinfo id="down_26" depart="122.00" departLane="54o_0" departPos="7.10" departSpeed="0.00" departDelay="0.00" arrival="233.00" arrivalLane="53i_0" arrivalPos="10.00" arrivalSpeed="11.53" duration="111.00" routeLength="1013.10" waitSteps="10" timeLoss="39.06" rerouteNo="0" devices="tripinfo_down_26" vType="typeNS" speedFactor="1.00" vaporized=""/>
    <tripinfo id="left_28" depart="131.00" departLane="52o_0" departPos="5.10" departSpeed="0.00" departDelay="0.00" arrival="249.00" arrivalLane="51i_0" arrivalPos="10.00" arrivalSpeed="11.48" duration="118.00" routeLength="1015.10" waitSteps="15" timeLoss="41.85" rerouteNo="0" devices="tripinfo_left_28" vType="typeWE" speedFactor="1.00" vaporized=""/>
    <tripinfo id="right_27" depart="125.00" departLane="51o_0" departPos="5.10" departSpeed="0.00" departDelay="0.00" arrival="249.00" arrivalLane="52i_0" arrivalPos="10.00" arrivalSpeed="11.50" duration="124.00" routeLength="1015.10" waitSteps="19" timeLoss="48.23" rerouteNo="0" devices="tripinfo_right_27" vType="typeWE" speedFactor="1.00" vaporized=""/>
    <tripinfo id="left_29" depart="136.00" departLane="52o_0" departPos="5.10" departSpeed="0.00" departDelay="1.00" arrival="251.00" arrivalLane="51i_0" arrivalPos="10.00" arrivalSpeed="10.89" duration="115.00" routeLength="1015.10" waitSteps="11" timeLoss="39.07" rerouteNo="0" devices="tripinfo_left_29" vType="typeWE" speedFactor="1.00" vaporized=""/>
    <tripinfo id="right_32" depart="145.00" departLane="51o_0" departPos="5.10" departSpeed="0.00" departDelay="0.00" arrival="252.00" arrivalLane="52i_0" arrivalPos="10.00" arrivalSpeed="11.49" duration="107.00" routeLength="1015.10" waitSteps="2" timeLoss="30.35" rerouteNo="0" devices="tripinfo_right_32" vType="typeWE" speedFactor="1.00" vaporized=""/>
    <tripinfo id="left_30" depart="141.00" departLane="52o_0" departPos="5.10" departSpeed="0.00" departDelay="3.00" arrival="253.00" arrivalLane="51i_0" arrivalPos="10.00" arrivalSpeed="11.63" duration="112.00" routeLength="1015.10" waitSteps="9" timeLoss="36.18" rerouteNo="0" devices="tripinfo_left_30" vType="typeWE" speedFactor="1.00" vaporized=""/>
    <tripinfo id="down_41" depart="172.00" departLane="54o_0" departPos="7.10" departSpeed="0.00" departDelay="0.00" arrival="262.00" arrivalLane="53i_0" arrivalPos="10.00" arrivalSpeed="11.56" duration="90.00" routeLength="1013.10" waitSteps="0" timeLoss="18.36" rerouteNo="0" devices="tripinfo_down_41" vType="typeNS" speedFactor="1.00" vaporized=""/>
    <tripinfo id="right_37" depart="167.00" departLane="51o_0" departPos="5.10" departSpeed="0.00" departDelay="0.00" arrival="280.00" arrivalLane="52i_0" arrivalPos="10.00" arrivalSpeed="11.41" duration="113.00" routeLength="1015.10" waitSteps="10" timeLoss="36.40" rerouteNo="0" devices="tripinfo_right_37" vType="typeWE" speedFactor="1.00" vaporized=""/>
    <tripinfo id="right_38" depart="172.00" departLane="51o_0" departPos="5.10" departSpeed="0.00" departDelay="4.00" arrival="281.00" arrivalLane="52i_0" arrivalPos="10.00" arrivalSpeed="10.84" duration="109.00" routeLength="1015.10" waitSteps="8" timeLoss="32.95" rerouteNo="0" devices="tripinfo_right_38" vType="typeWE" speedFactor="1.00" vaporized=""/>
    <tripinfo id="left_31" depart="146.00" departLane="52o_0" departPos="5.10" departSpeed="0.00" departDelay="4.00" arrival="281.00" arrivalLane="51i_0" arrivalPos="10.00" arrivalSpeed="11.48" duration="135.00" routeLength="1015.10" waitSteps="22" timeLoss="58.41" rerouteNo="0" devices="tripinfo_left_31" vType="typeWE" speedFactor="1.00" vaporized=""/>
    <tripinfo id="left_33" depart="157.00" departLane="52o_0" departPos="5.10" departSpeed="0.00" departDelay="4.00" arrival="283.00" arrivalLane="51i_0" arrivalPos="10.00" arrivalSpeed="11.24" duration="126.00" routeLength="1015.10" waitSteps="18" timeLoss="49.52" rerouteNo="0" devices="tripinfo_left_33" vType="typeWE" speedFactor="1.00" vaporized=""/>
    <tripinfo id="right_42" depart="177.00" departLane="51o_0" departPos="5.10" departSpeed="0.00" departDelay="1.00" arrival="284.00" arrivalLane="52i_0" arrivalPos="10.00" arrivalSpeed="11.55" duration="107.00" routeLength="1015.10" waitSteps="4" timeLoss="30.83" rerouteNo="0" devices="tripinfo_right_42" vType="typeWE" speedFactor="1.00" vaporized=""/>
    <tripinfo id="left_34" depart="162.00" departLane="52o_0" departPos="5.10" departSpeed="0.00" departDelay="6.00" arrival="285.00" arrivalLane="51i_0" arrivalPos="10.00" arrivalSpeed="11.36" duration="123.00" routeLength="1015.10" waitSteps="17" timeLoss="46.43" rerouteNo="0" devices="tripinfo_left_34" vType="typeWE" speedFactor="1.00" vaporized=""/>
    <tripinfo id="right_43" depart="184.00" departLane="51o_0" departPos="5.10" departSpeed="0.00" departDelay="3.00" arrival="312.00" arrivalLane="52i_0" arrivalPos="10.00" arrivalSpeed="11.33" duration="128.00" routeLength="1015.10" waitSteps="20" timeLoss="52.23" rerouteNo="0" devices="tripinfo_right_43" vType="typeWE" speedFactor="1.00" vaporized=""/>
    <tripinfo id="left_35" depart="167.00" departLane="52o_0" departPos="5.10" departSpeed="0.00" departDelay="7.00" arrival="313.00" arrivalLane="51i_0" arrivalPos="10.00" arrivalSpeed="11.51" duration="146.00" routeLength="1015.10" waitSteps="34" timeLoss="69.42" rerouteNo="0" devices="tripinfo_left_35" vType="typeWE" speedFactor="1.00" vaporized=""/>
    <tripinfo id="right_44" depart="189.00" departLane="51o_0" departPos="5.10" departSpeed="0.00" departDelay="6.00" arrival="314.00" arrivalLane="52i_0" arrivalPos="10.00" arrivalSpeed="10.98" duration="125.00" routeLength="1015.10" waitSteps="19" timeLoss="49.03" rerouteNo="0" devices="tripinfo_right_44" vType="typeWE" speedFactor="1.00" vaporized=""/>
    <tripinfo id="left_36" depart="172.00" departLane="52o_0" departPos="5.10" departSpeed="0.00" departDelay="8.00" arrival="315.00" arrivalLane="51i_0" arrivalPos="10.00" arrivalSpeed="11.64" duration="143.00" routeLength="1015.10" waitSteps="31" timeLoss="66.76" rerouteNo="0" devices="tripinfo_left_36" vType="typeWE" speedFactor="1.00" vaporized=""/>
    <tripinfo id="left_39" depart="177.00" departLane="52o_0" departPos="5.10" departSpeed="0.00" departDelay="8.00" arrival="317.00" arrivalLane="51i_0" arrivalPos="10.00" arrivalSpeed="11.40" duration="140.00" routeLength="1015.10" waitSteps="27" timeLoss="63.70" rerouteNo="0" devices="tripinfo_left_39" vType="typeWE" speedFactor="1.00" vaporized=""/>
    <tripinfo id="right_48" depart="200.00" departLane="51o_0" departPos="5.10" departSpeed="0.00" departDelay="0.00" arrival="317.00" arrivalLane="52i_0" arrivalPos="10.00" arrivalSpeed="11.32" duration="117.00" routeLength="1015.10" waitSteps="12" timeLoss="40.42" rerouteNo="0" devices="tripinfo_right_48" vType="typeWE" speedFactor="1.00" vaporized=""/>
    <tripinfo id="down_55" depart="238.00" departLane="54o_0" departPos="7.10" departSpeed="0.00" departDelay="0.00" arrival="327.00" arrivalLane="53i_0" arrivalPos="10.00" arrivalSpeed="11.32" duration="89.00" routeLength="1013.10" waitSteps="0" timeLoss="17.21" rerouteNo="0" devices="tripinfo_down_55" vType="typeNS" speedFactor="1.00" vaporized=""/>
    <tripinfo id="left_40" depart="182.00" departLane="52o_0" departPos="5.10" departSpeed="0.00" departDelay="10.00" arrival="344.00" arrivalLane="51i_0" arrivalPos="10.00" arrivalSpeed="11.48" duration="162.00" routeLength="1015.10" waitSteps="41" timeLoss="86.08" rerouteNo="0" devices="tripinfo_left_40" vType="typeWE" speedFactor="1.00" vaporized=""/>
    <tripinfo id="right_50" depart="219.00" departLane="51o_0" departPos="5.10" departSpeed="0.00" departDelay="2.00" arrival="344.00" arrivalLane="52i_0" arrivalPos="10.00" arrivalSpeed="11.35" duration="125.00" routeLength="1015.10" waitSteps="19" timeLoss="49.02" rerouteNo="0" devices="tripinfo_right_50" vType="typeWE" speedFactor="1.00" vaporized=""/>
    <tripinfo id="left_45" depart="194.00" departLane="52o_0" departPos="5.10" departSpeed="0.00" departDelay="0.00" arrival="346.00" arrivalLane="51i_0" arrivalPos="10.00" arrivalSpeed="10.98" duration="152.00" routeLength="1015.10" waitSteps="37" timeLoss="76.06" rerouteNo="0" devices="tripinfo_left_45" vType="typeWE" speedFactor="1.00" vaporized=""/>
    <tripinfo id="right_52" depart="228.00" departLane="51o_0" departPos="5.10" departSpeed="0.00" departDelay="0.00" arrival="347.00" arrivalLane="52i_0" arrivalPos="10.00" arrivalSpeed="11.36" duration="119.00" routeLength="1015.10" waitSteps="15" timeLoss="42.64" rerouteNo="0" devices="tripinfo_right_52" vType="typeWE" speedFactor="1.00" vaporized=""/>
    <tripinfo id="left_46" depart="199.00" departLane="52o_0" departPos="5.10" departSpeed="0.00" departDelay="3.00" arrival="349.00" arrivalLane="51i_0" arrivalPos="10.00" arrivalSpeed="11.60" duration="150.00" routeLength="1015.10" waitSteps="34" timeLoss="73.70" rerouteNo="0" devices="tripinfo_left_46" vType="typeWE" speedFactor="1.00" vaporized=""/>
    <tripinfo id="right_56" depart="240.00" departLane="51o_0" departPos="5.10" departSpeed="0.00" departDelay="0.00" arrival="349.00" arrivalLane="52i_0" arrivalPos="10.00" arrivalSpeed="11.44" duration="109.00" routeLength="1015.10" waitSteps="5" timeLoss="32.78" rerouteNo="0" devices="tripinfo_right_56" vType="typeWE" speedFactor="1.00" vaporized=""/>
    <tripinfo id="down_57" depart="244.00" departLane="54o_0" departPos="7.10" departSpeed="0.00" departDelay="2.00" arrival="360.00" arrivalLane="53i_0" arrivalPos="10.00" arrivalSpeed="10.78" duration="116.00" routeLength="1013.10" waitSteps="16" timeLoss="44.60" rerouteNo="0" devices="tripinfo_down_57" vType="typeNS" speedFactor="1.00" vaporized=""/>
    <tripinfo id="left_47" depart="204.00" departLane="52o_0" departPos="5.10" departSpeed="0.00" departDelay="5.00" arrival="376.00" arrivalLane="51i_0" arrivalPos="10.00" arrivalSpeed="11.50" duration="172.00" routeLength="1015.10" waitSteps="49" timeLoss="95.62" rerouteNo="0" devices="tripinfo_left_47" vType="typeWE" speedFactor="1.00" vaporized=""/>
    <tripinfo id="right_61" depart="285.00" departLane="51o_0" departPos="5.10" departSpeed="0.00" departDelay="1.00" arrival="377.00" arrivalLane="52i_0" arrivalPos="10.00" arrivalSpeed="11.48" duration="92.00" routeLength="1015.10" waitSteps="0" timeLoss="15.31" rerouteNo="0" devices="tripinfo_right_61" vType="typeWE" speedFactor="1.00" vaporized=""/>
    <tripinfo id="left_49" depart="212.00" departLane="52o_0" departPos="5.10" departSpeed="0.00" departDelay="0.00" arrival="379.00" arrivalLane="51i_0" arrivalPos="10.00" arrivalSpeed="11.46" duration="167.00" routeLength="1015.10" waitSteps="42" timeLoss="91.06" rerouteNo="0" devices="tripinfo_left_49" vType="typeWE" speedFactor="1.00" vaporized=""/>
    <tripinfo id="left_51" depart="221.00" departLane="52o_0" departPos="5.10" departSpeed="0.00" departDelay="2.00" arrival="381.00" arrivalLane="51i_0" arrivalPos="10.00" arrivalSpeed="11.71" duration="160.00" routeLength="1015.10" waitSteps="35" timeLoss="83.82" rerouteNo="0" devices="tripinfo_left_51" vType="typeWE" speedFactor="1.00" vaporized=""/>
    <tripinfo id="down_60" depart="283.00" departLane="54o_0" departPos="7.10" departSpeed="0.00" departDelay="0.00" arrival="393.00" arrivalLane="53i_0" arrivalPos="10.00" arrivalSpeed="11.44" duration="110.00" routeLength="1013.10" waitSteps="8" timeLoss="38.31" rerouteNo="0" devices="tripinfo_down_60" vType="typeNS" speedFactor="1.00" vaporized=""/>
    <tripinfo id="down_66" depart="302.00" departLane="54o_0" departPos="7.10" departSpeed="0.00" departDelay="0.00" arrival="395.00" arrivalLane="53i_0" arrivalPos="10.00" arrivalSpeed="11.38" duration="93.00" routeLength="1013.10" waitSteps="0" timeLoss="21.20" rerouteNo="0" devices="tripinfo_down_66" vType="typeNS" speedFactor="1.00" vaporized=""/>
    <tripinfo id="right_62" depart="290.00" departLane="51o_0" departPos="5.10" departSpeed="0.00" departDelay="4.00" arrival="408.00" arrivalLane="52i_0" arrivalPos="10.00" arrivalSpeed="11.57" duration="118.00" routeLength="1015.10" waitSteps="16" timeLoss="42.07" rerouteNo="0" devices="tripinfo_right_62" vType="typeWE" speedFactor="1.00" vaporized=""/>
    <tripinfo id="left_53" depart="234.00" departLane="52o_0" departPos="5.10" departSpeed="0.00" departDelay="0.00" arrival="409.00" arrivalLane="51i_0" arrivalPos="10.00" arrivalSpeed="11.76" duration="175.00" routeLength="1015.10" waitSteps="52" timeLoss="98.47" rerouteNo="0" devices="tripinfo_left_53" vType="typeWE" speedFactor="1.00" vaporized=""/>
    <tripinfo id="right_63" depart="295.00" departLane="51o_0" departPos="5.10" departSpeed="0.00" departDelay="7.00" arrival="410.00" arrivalLane="52i_0" arrivalPos="10.00" arrivalSpeed="11.66" duration="115.00" routeLength="1015.10" waitSteps="13" timeLoss="39.04" rerouteNo="0" devices="tripinfo_right_63" vType="typeWE" speedFactor="1.00" vaporized=""/>
    <tripinfo id="left_54" depart="239.00" departLane="52o_0" departPos="5.10" departSpeed="0.00" departDelay="1.00" arrival="411.00" arrivalLane="51i_0" arrivalPos="10.00" arrivalSpeed="11.59" duration="172.00" routeLength="1015.10" waitSteps="49" timeLoss="95.43" rerouteNo="0" devices="tripinfo_left_54" vType="typeWE" speedFactor="1.00" vaporized=""/>
    <tripinfo id="left_58" depart="272.00" departLane="52o_0" departPos="5.10" departSpeed="0.00" departDelay="0.00" arrival="412.00" arrivalLane="51i_0" arrivalPos="10.00" arrivalSpeed="11.55" duration="140.00" routeLength="1015.10" waitSteps="29" timeLoss="64.08" rerouteNo="0" devices="tripinfo_left_58" vType="typeWE" speedFactor="1.00" vaporized=""/>
    <tripinfo id="right_64" depart="300.00" departLane="51o_0" departPos="5.10" departSpeed="0.00" departDelay="9.00" arrival="412.00" arrivalLane="52i_0" arrivalPos="10.00" arrivalSpeed="11.87" duration="112.00" routeLength="1015.10" waitSteps="9" timeLoss="35.94" rerouteNo="0" devices="tripinfo_right_64" vType="typeWE" speedFactor="1.00" vaporized=""/>
    <tripinfo id="down_67" depart="318.00" departLane="54o_0" departPos="7.10" departSpeed="0.00" departDelay="0.00" arrival="425.00" arrivalLane="53i_0" arrivalPos="10.00" arrivalSpeed="11.46" duration="107.00" routeLength="1013.10" waitSteps="7" timeLoss="35.07" rerouteNo="0" devices="tripinfo_down_67" vType="typeNS" speedFactor="1.00" vaporized=""/>
    <tripinfo id="down_69" depart="331.00" departLane="54o_0" departPos="7.10" departSpeed="0.00" departDelay="0.00" arrival="427.00" arrivalLane="53i_0" arrivalPos="10.00" arrivalSpeed="11.69" duration="96.00" routeLength="1013.10" waitSteps="0" timeLoss="23.97" rerouteNo="0" devices="tripinfo_down_69" vType="typeNS" speedFactor="1.00" vaporized=""/>
    <tripinfo id="down_70" depart="337.00" departLane="54o_0" departPos="7.10" departSpeed="0.00" departDelay="0.00" arrival="429.00" arrivalLane="53i_0" arrivalPos="10.00" arrivalSpeed="11.68" duration="92.00" routeLength="1013.10" waitSteps="0" timeLoss="20.03" rerouteNo="0" devices="tripinfo_down_70" vType="typeNS" speedFactor="1.00" vaporized=""/>
    <tripinfo id="left_59" depart="277.00" departLane="52o_0" departPos="5.10" departSpeed="0.00" departDelay="2.00" arrival="440.00" arrivalLane="51i_0" arrivalPos="10.00" arrivalSpeed="11.41" duration="163.00" routeLength="1015.10" waitSteps="43" timeLoss="87.06" rerouteNo="0" devices="tripinfo_left_59" vType="typeWE" speedFactor="1.00" vaporized=""/>
    <tripinfo id="right_65" depart="305.00" departLane="51o_0" departPos="5.10" departSpeed="0.00" departDelay="11.00" arrival="441.00" arrivalLane="52i_0" arrivalPos="10.00" arrivalSpeed="11.33" duration="136.00" routeLength="1015.10" waitSteps="23" timeLoss="59.55" rerouteNo="0" devices="tripinfo_right_65" vType="typeWE" speedFactor="1.00" vaporized=""/>
    <tripinfo id="left_71" depart="339.00" departLane="52o_0" departPos="5.10" departSpeed="0.00" departDelay="0.00" arrival="443.00" arrivalLane="51i_0" arrivalPos="10.00" arrivalSpeed="11.53" duration="104.00" routeLength="1015.10" waitSteps="1" timeLoss="27.53" rerouteNo="0" devices="tripinfo_left_71" vType="typeWE" speedFactor="1.00" vaporized=""/>
    <tripinfo id="right_68" depart="322.00" departLane="51o_0" departPos="5.10" departSpeed="0.00" departDelay="0.00" arrival="443.00" arrivalLane="52i_0" arrivalPos="10.00" arrivalSpeed="11.68" duration="121.00" routeLength="1015.10" waitSteps="17" timeLoss="44.57" rerouteNo="0" devices="tripinfo_right_68" vType="typeWE" speedFactor="1.00" vaporized=""/>
    <tripinfo id="left_73" depart="344.00" departLane="52o_0" departPos="5.10" departSpeed="0.00" departDelay="0.00" arrival="445.00" arrivalLane="51i_0" arrivalPos="10.00" arrivalSpeed="11.57" duration="101.00" routeLength="1015.10" waitSteps="0" timeLoss="24.48" rerouteNo="0" devices="tripinfo_left_73" vType="typeWE" speedFactor="1.00" vaporized=""/>
    <tripinfo id="right_72" depart="342.00" departLane="51o_0" departPos="5.10" departSpeed="0.00" departDelay="0.00" arrival="445.00" arrivalLane="52i_0" arrivalPos="10.00" arrivalSpeed="11.56" duration="103.00" routeLength="1015.10" waitSteps="0" timeLoss="26.53" rerouteNo="0" devices="tripinfo_right_72" vType="typeWE" speedFactor="1.00" vaporized=""/>
    <tripinfo id="down_74" depart="344.00" departLane="54o_0" departPos="7.10" departSpeed="0.00" departDelay="0.00" arrival="456.00" arrivalLane="53i_0" arrivalPos="10.00" arrivalSpeed="11.03" duration="112.00" routeLength="1013.10" waitSteps="13" timeLoss="40.59" rerouteNo="0" devices="tripinfo_down_74" vType="typeNS" speedFactor="1.00" vaporized=""/>
    <tripinfo id="down_76" depart="350.00" departLane="54o_0" departPos="7.10" departSpeed="0.00" departDelay="1.00" arrival="459.00" arrivalLane="53i_0" arrivalPos="10.00" arrivalSpeed="11.71" duration="109.00" routeLength="1013.10" waitSteps="7" timeLoss="36.98" rerouteNo="0" devices="tripinfo_down_76" vType="typeNS" speedFactor="1.00" vaporized=""/>
    <tripinfo id="left_75" depart="349.00" departLane="52o_0" departPos="5.10" departSpeed="0.00" departDelay="3.00" arrival="472.00" arrivalLane="51i_0" arrivalPos="10.00" arrivalSpeed="11.74" duration="123.00" routeLength="1015.10" waitSteps="19" timeLoss="46.99" rerouteNo="0" devices="tripinfo_left_75" vType="typeWE" speedFactor="1.00" vaporized=""/>
    <tripinfo id="right_77" depart="354.00" departLane="51o_0" departPos="5.10" departSpeed="0.00" departDelay="0.00" arrival="472.00" arrivalLane="52i_0" arrivalPos="10.00" arrivalSpeed="11.59" duration="118.00" routeLength="1015.10" waitSteps="16" timeLoss="42.01" rerouteNo="0" devices="tripinfo_right_77" vType="typeWE" speedFactor="1.00" vaporized=""/>
    <tripinfo id="right_78" depart="376.00" departLane="51o_0" departPos="5.10" departSpeed="0.00" departDelay="1.00" arrival="475.00" arrivalLane="52i_0" arrivalPos="10.00" arrivalSpeed="11.59" duration="99.00" routeLength="1015.10" waitSteps="0" timeLoss="22.46" rerouteNo="0" devices="tripinfo_right_78" vType="typeWE" speedFactor="1.00" vaporized=""/>
    <tripinfo id="right_81" depart="383.00" departLane="51o_0" departPos="5.10" departSpeed="0.00" departDelay="0.00" arrival="476.00" arrivalLane="52i_0" arrivalPos="10.00" arrivalSpeed="10.90" duration="93.00" routeLength="1015.10" waitSteps="0" timeLoss="17.01" rerouteNo="0" devices="tripinfo_right_81" vType="typeWE" speedFactor="1.00" vaporized=""/>
    <tripinfo id="down_79" depart="377.00" departLane="54o_0" departPos="7.10" departSpeed="0.00" departDelay="0.00" arrival="488.00" arrivalLane="53i_0" arrivalPos="10.00" arrivalSpeed="11.50" duration="111.00" routeLength="1013.10" waitSteps="12" timeLoss="39.50" rerouteNo="0" devices="tripinfo_down_79" vType="typeNS" speedFactor="1.00" vaporized=""/>