<?xml version="1.0" encoding="UTF-8"?>

<!-- generated on Thu Mar 15 01:06:55 2018 by SUMO Version 0.32.0
<?xml version="1.0" encoding="UTF-8"?>

<configuration xmlns:xsi="http://www.w3.org/2001/XMLSchema-instance" xsi:noNamespaceSchemaLocation="http://sumo.dlr.de/xsd/sumoConfiguration.xsd">

    <input>
        <net-file value="data/cross.net.xml"/>
        <route-files value="data/cross.rou.xml"/>
        <additional-files value="data/cross.det.xml,data/cross.det2.xml"/>
    </input>

    <output>
        <tripinfo-output value="fgreen=15_tripinfo.xml"/>
    </output>

    <time>
        <begin value="0"/>
    </time>

    <report>
        <verbose value="true"/>
        <error-log value="errors"/>
        <no-step-log value="true"/>
    </report>

    <traci_server>
        <remote-port value="54367"/>
    </traci_server>

</configuration>
-->

<tripinfos xmlns:xsi="http://www.w3.org/2001/XMLSchema-instance" xsi:noNamespaceSchemaLocation="http://sumo.dlr.de/xsd/tripinfo_file.xsd">
    <tripinfo id="left_0" depart="0.00" departLane="52o_0" departPos="5.10" departSpeed="0.00" departDelay="0.00" arrival="91.00" arrivalLane="51i_0" arrivalPos="10.00" arrivalSpeed="11.49" duration="91.00" routeLength="1015.10" waitSteps="0" timeLoss="14.93" rerouteNo="0" devices="tripinfo_left_0" vType="typeWE" speedFactor="1.00" vaporized=""/>
    <tripinfo id="right_2" depart="3.00" departLane="51o_0" departPos="5.10" departSpeed="0.00" departDelay="0.00" arrival="94.00" arrivalLane="52i_0" arrivalPos="10.00" arrivalSpeed="11.48" duration="91.00" routeLength="1015.10" waitSteps="0" timeLoss="14.38" rerouteNo="0" devices="tripinfo_right_2" vType="typeWE" speedFactor="1.00" vaporized=""/>
    <tripinfo id="left_1" depart="5.00" departLane="52o_0" departPos="5.10" departSpeed="0.00" departDelay="3.00" arrival="97.00" arrivalLane="51i_0" arrivalPos="10.00" arrivalSpeed="11.37" duration="92.00" routeLength="1015.10" waitSteps="0" timeLoss="15.31" rerouteNo="0" devices="tripinfo_left_1" vType="typeWE" speedFactor="1.00" vaporized=""/>
    <tripinfo id="right_3" depart="8.00" departLane="51o_0" departPos="5.10" departSpeed="0.00" departDelay="4.00" arrival="99.00" arrivalLane="52i_0" arrivalPos="10.00" arrivalSpeed="11.75" duration="91.00" routeLength="1015.10" waitSteps="0" timeLoss="14.80" rerouteNo="0" devices="tripinfo_right_3" vType="typeWE" speedFactor="1.00" vaporized=""/>
    <tripinfo id="left_4" depart="10.00" departLane="52o_0" departPos="5.10" departSpeed="0.00" departDelay="4.00" arrival="101.00" arrivalLane="51i_0" arrivalPos="10.00" arrivalSpeed="11.55" duration="91.00" routeLength="1015.10" waitSteps="0" timeLoss="14.82" rerouteNo="0" devices="tripinfo_left_4" vType="typeWE" speedFactor="1.00" vaporized=""/>
    <tripinfo id="right_5" depart="13.00" departLane="51o_0" departPos="5.10" departSpeed="0.00" departDelay="4.00" arrival="104.00" arrivalLane="52i_0" arrivalPos="10.00" arrivalSpeed="11.49" duration="91.00" routeLength="1015.10" waitSteps="0" timeLoss="14.32" rerouteNo="0" devices="tripinfo_right_5" vType="typeWE" speedFactor="1.00" vaporized=""/>
    <tripinfo id="down_6" depart="13.00" departLane="54o_0" departPos="7.10" departSpeed="0.00" departDelay="0.00" arrival="119.00" arrivalLane="53i_0" arrivalPos="10.00" arrivalSpeed="11.68" duration="106.00" routeLength="1013.10" waitSteps="6" timeLoss="34.76" rerouteNo="0" devices="tripinfo_down_6" vType="typeNS" speedFactor="1.00" vaporized=""/>
    <tripinfo id="down_8" depart="29.00" departLane="54o_0" departPos="7.10" departSpeed="0.00" departDelay="0.00" arrival="121.00" arrivalLane="53i_0" arrivalPos="10.00" arrivalSpeed="11.74" duration="92.00" routeLength="1013.10" waitSteps="0" timeLoss="20.64" rerouteNo="0" devices="tripinfo_down_8" vType="typeNS" speedFactor="1.00" vaporized=""/>
    <tripinfo id="right_12" depart="42.00" departLane="51o_0" departPos="5.10" departSpeed="0.00" departDelay="0.00" arrival="133.00" arrivalLane="52i_0" arrivalPos="10.00" arrivalSpeed="11.19" duration="91.00" routeLength="1015.10" waitSteps="0" timeLoss="15.01" rerouteNo="0" devices="tripinfo_right_12" vType="typeWE" speedFactor="1.00" vaporized=""/>
    <tripinfo id="left_7" depart="22.00" departLane="52o_0" departPos="5.10" departSpeed="0.00" departDelay="0.00" arrival="141.00" arrivalLane="51i_0" arrivalPos="10.00" arrivalSpeed="11.70" duration="119.00" routeLength="1015.10" waitSteps="18" timeLoss="42.67" rerouteNo="0" devices="tripinfo_left_7" vType="typeWE" speedFactor="1.00" vaporized=""/>
    <tripinfo id="left_9" depart="31.00" departLane="52o_0" departPos="5.10" departSpeed="0.00" departDelay="0.00" arrival="143.00" arrivalLane="51i_0" arrivalPos="10.00" arrivalSpeed="11.77" duration="112.00" routeLength="1015.10" waitSteps="9" timeLoss="35.52" rerouteNo="0" devices="tripinfo_left_9" vType="typeWE" speedFactor="1.00" vaporized=""/>
    <tripinfo id="left_10" depart="36.00" departLane="52o_0" departPos="5.10" departSpeed="0.00" departDelay="3.00" arrival="145.00" arrivalLane="51i_0" arrivalPos="10.00" arrivalSpeed="11.47" duration="109.00" routeLength="1015.10" waitSteps="6" timeLoss="32.41" rerouteNo="0" devices="tripinfo_left_10" vType="typeWE" speedFactor="1.00" vaporized=""/>
    <tripinfo id="right_15" depart="55.00" departLane="51o_0" departPos="5.10" departSpeed="0.00" departDelay="0.00" arrival="146.00" arrivalLane="52i_0" arrivalPos="10.00" arrivalSpeed="11.41" duration="91.00" routeLength="1015.10" waitSteps="0" timeLoss="14.94" rerouteNo="0" devices="tripinfo_right_15" vType="typeWE" speedFactor="1.00" vaporized=""/>
    <tripinfo id="left_11" depart="41.00" departLane="52o_0" departPos="5.10" departSpeed="0.00" departDelay="0.00" arrival="147.00" arrivalLane="51i_0" arrivalPos="10.00" arrivalSpeed="11.45" duration="106.00" routeLength="1015.10" waitSteps="2" timeLoss="29.57" rerouteNo="0" devices="tripinfo_left_11" vType="typeWE" speedFactor="1.00" vaporized=""/>
    <tripinfo id="left_13" depart="46.00" departLane="52o_0" departPos="5.10" departSpeed="0.00" departDelay="1.00" arrival="149.00" arrivalLane="51i_0" arrivalPos="10.00" arrivalSpeed="11.38" duration="103.00" routeLength="1015.10" waitSteps="0" timeLoss="26.34" rerouteNo="0" devices="tripinfo_left_13" vType="typeWE" speedFactor="1.00" vaporized=""/>
    <tripinfo id="left_14" depart="53.00" departLane="52o_0" departPos="5.10" departSpeed="0.00" departDelay="0.00" arrival="182.00" arrivalLane="51i_0" arrivalPos="10.00" arrivalSpeed="11.31" duration="129.00" routeLength="1015.10" waitSteps="23" timeLoss="52.78" rerouteNo="0" devices="tripinfo_left_14" vType="typeWE" speedFactor="1.00" vaporized=""/>
    <tripinfo id="right_16" depart="61.00" departLane="51o_0" departPos="5.10" departSpeed="0.00" departDelay="0.00" arrival="182.00" arrivalLane="52i_0" arrivalPos="10.00" arrivalSpeed="11.56" duration="121.00" routeLength="1015.10" waitSteps="19" timeLoss="44.74" rerouteNo="0" devices="tripinfo_right_16" vType="typeWE" speedFactor="1.00" vaporized=""/>
    <tripinfo id="left_19" depart="85.00" departLane="52o_0" departPos="5.10" departSpeed="0.00" departDelay="0.00" arrival="184.00" arrivalLane="51i_0" arrivalPos="10.00" arrivalSpeed="11.49" duration="99.00" routeLength="1015.10" waitSteps="0" timeLoss="22.77" rerouteNo="0" devices="tripinfo_left_19" vType="typeWE" speedFactor="1.00" vaporized=""/>
    <tripinfo id="right_17" depart="69.00" departLane="51o_0" departPos="5.10" departSpeed="0.00" departDelay="0.00" arrival="184.00" arrivalLane="52i_0" arrivalPos="10.00" arrivalSpeed="11.42" duration="115.00" routeLength="1015.10" waitSteps="13" timeLoss="39.11" rerouteNo="0" devices="tripinfo_right_17" vType="typeWE" speedFactor="1.00" vaporized=""/>
    <tripinfo id="right_18" depart="84.00" departLane="51o_0" departPos="5.10" departSpeed="0.00" departDelay="0.00" arrival="186.00" arrivalLane="52i_0" arrivalPos="10.00" arrivalSpeed="11.77" duration="102.00" routeLength="1015.10" waitSteps="0" timeLoss="26.22" rerouteNo="0" devices="tripinfo_right_18" vType="typeWE" speedFactor="1.00" vaporized=""/>
    <tripinfo id="left_23" depart="99.00" departLane="52o_0" departPos="5.10" departSpeed="0.00" departDelay="0.00" arrival="192.00" arrivalLane="51i_0" arrivalPos="10.00" arrivalSpeed="11.25" duration="93.00" routeLength="1015.10" waitSteps="0" timeLoss="16.37" rerouteNo="0" devices="tripinfo_left_23" vType="typeWE" speedFactor="1.00" vaporized=""/>
    <tripinfo id="down_20" depart="89.00" departLane="54o_0" departPos="7.10" departSpeed="0.00" departDelay="0.00" arrival="203.00" arrivalLane="53i_0" arrivalPos="10.00" arrivalSpeed="11.25" duration="114.00" routeLength="1013.10" waitSteps="14" timeLoss="42.45" rerouteNo="0" devices="tripinfo_down_20" vType="typeNS" speedFactor="1.00" vaporized=""/>
    <tripinfo id="down_21" depart="96.00" departLane="54o_0" departPos="7.10" departSpeed="0.00" departDelay="0.00" arrival="206.00" arrivalLane="53i_0" arrivalPos="10.00" arrivalSpeed="11.41" duration="110.00" routeLength="1013.10" waitSteps="9" timeLoss="38.19" rerouteNo="0" devices="tripinfo_down_21" vType="typeNS" speedFactor="1.00" vaporized=""/>
    <tripinfo id="down_26" depart="122.00" departLane="54o_0" departPos="7.10" departSpeed="0.00" departDelay="0.00" arrival="214.00" arrivalLane="53i_0" arrivalPos="10.00" arrivalSpeed="11.67" duration="92.00" routeLength="1013.10" waitSteps="0" timeLoss="20.60" rerouteNo="0" devices="tripinfo_down_26" vType="typeNS" speedFactor="1.00" vaporized=""/>
    <tripinfo id="left_28" depart="131.00" departLane="52o_0" departPos="5.10" departSpeed="0.00" departDelay="0.00" arrival="222.00" arrivalLane="51i_0" arrivalPos="10.00" arrivalSpeed="11.47" duration="91.00" routeLength="1015.10" waitSteps="0" timeLoss="14.58" rerouteNo="0" devices="tripinfo_left_28" vType="typeWE" speedFactor="1.00" vaporized=""/>
    <tripinfo id="right_22" depart="101.00" departLane="51o_0" departPos="5.10" departSpeed="0.00" departDelay="2.00" arrival="225.00" arrivalLane="52i_0" arrivalPos="10.00" arrivalSpeed="11.36" duration="124.00" routeLength="1015.10" waitSteps="21" timeLoss="47.44" rerouteNo="0" devices="tripinfo_right_22" vType="typeWE" speedFactor="1.00" vaporized=""/>
    <tripinfo id="right_24" depart="108.00" departLane="51o_0" departPos="5.10" departSpeed="0.00" departDelay="0.00" arrival="227.00" arrivalLane="52i_0" arrivalPos="10.00" arrivalSpeed="11.85" duration="119.00" routeLength="1015.10" waitSteps="16" timeLoss="42.46" rerouteNo="0" devices="tripinfo_right_24" vType="typeWE" speedFactor="1.00" vaporized=""/>
    <tripinfo id="right_25" depart="114.00" departLane="51o_0" departPos="5.10" departSpeed="0.00" departDelay="0.00" arrival="228.00" arrivalLane="52i_0" arrivalPos="10.00" arrivalSpeed="10.81" duration="114.00" routeLength="1015.10" waitSteps="10" timeLoss="38.02" rerouteNo="0" devices="tripinfo_right_25" vType="typeWE" speedFactor="1.00" vaporized=""/>
    <tripinfo id="left_29" depart="136.00" departLane="52o_0" departPos="5.10" departSpeed="0.00" departDelay="1.00" arrival="228.00" arrivalLane="51i_0" arrivalPos="10.00" arrivalSpeed="11.51" duration="92.00" routeLength="1015.10" waitSteps="0" timeLoss="15.97" rerouteNo="0" devices="tripinfo_left_29" vType="typeWE" speedFactor="1.00" vaporized=""/>
    <tripinfo id="right_27" depart="125.00" departLane="51o_0" departPos="5.10" departSpeed="0.00" departDelay="0.00" arrival="231.00" arrivalLane="52i_0" arrivalPos="10.00" arrivalSpeed="11.57" duration="106.00" routeLength="1015.10" waitSteps="1" timeLoss="29.54" rerouteNo="0" devices="tripinfo_right_27" vType="typeWE" speedFactor="1.00" vaporized=""/>
    <tripinfo id="right_32" depart="149.00" departLane="51o_0" departPos="5.10" departSpeed="0.00" departDelay="4.00" arrival="266.00" arrivalLane="52i_0" arrivalPos="10.00" arrivalSpeed="11.11" duration="117.00" routeLength="1015.10" waitSteps="15" timeLoss="41.29" rerouteNo="0" devices="tripinfo_right_32" vType="typeWE" speedFactor="1.00" vaporized=""/>
    <tripinfo id="left_30" depart="141.00" departLane="52o_0" departPos="5.10" departSpeed="0.00" departDelay="3.00" arrival="267.00" arrivalLane="51i_0" arrivalPos="10.00" arrivalSpeed="11.35" duration="126.00" routeLength="1015.10" waitSteps="23" timeLoss="49.60" rerouteNo="0" devices="tripinfo_left_30" vType="typeWE" speedFactor="1.00" vaporized=""/>
    <tripinfo id="right_37" depart="167.00" departLane="51o_0" departPos="5.10" departSpeed="0.00" departDelay="0.00" arrival="268.00" arrivalLane="52i_0" arrivalPos="10.00" arrivalSpeed="11.73" duration="101.00" routeLength="1015.10" waitSteps="0" timeLoss="25.02" rerouteNo="0" devices="tripinfo_right_37" vType="typeWE" speedFactor="1.00" vaporized=""/>
    <tripinfo id="left_31" depart="146.00" departLane="52o_0" departPos="5.10" departSpeed="0.00" departDelay="4.00" arrival="269.00" arrivalLane="51i_0" arrivalPos="10.00" arrivalSpeed="11.42" duration="123.00" routeLength="1015.10" waitSteps="18" timeLoss="46.46" rerouteNo="0" devices="tripinfo_left_31" vType="typeWE" speedFactor="1.00" vaporized=""/>
    <tripinfo id="left_33" depart="153.00" departLane="52o_0" departPos="5.10" departSpeed="0.00" departDelay="0.00" arrival="270.00" arrivalLane="51i_0" arrivalPos="10.00" arrivalSpeed="11.71" duration="117.00" routeLength="1015.10" waitSteps="15" timeLoss="41.23" rerouteNo="0" devices="tripinfo_left_33" vType="typeWE" speedFactor="1.00" vaporized=""/>
    <tripinfo id="right_38" depart="172.00" departLane="51o_0" departPos="5.10" departSpeed="0.00" departDelay="4.00" arrival="270.00" arrivalLane="52i_0" arrivalPos="10.00" arrivalSpeed="11.72" duration="98.00" routeLength="1015.10" waitSteps="0" timeLoss="21.71" rerouteNo="0" devices="tripinfo_right_38" vType="typeWE" speedFactor="1.00" vaporized=""/>
    <tripinfo id="left_34" depart="158.00" departLane="52o_0" departPos="5.10" departSpeed="0.00" departDelay="2.00" arrival="272.00" arrivalLane="51i_0" arrivalPos="10.00" arrivalSpeed="11.49" duration="114.00" routeLength="1015.10" waitSteps="10" timeLoss="37.99" rerouteNo="0" devices="tripinfo_left_34" vType="typeWE" speedFactor="1.00" vaporized=""/>
    <tripinfo id="right_42" depart="177.00" departLane="51o_0" departPos="5.10" departSpeed="0.00" departDelay="1.00" arrival="272.00" arrivalLane="52i_0" arrivalPos="10.00" arrivalSpeed="11.48" duration="95.00" routeLength="1015.10" waitSteps="0" timeLoss="18.59" rerouteNo="0" devices="tripinfo_right_42" vType="typeWE" speedFactor="1.00" vaporized=""/>
    <tripinfo id="left_35" depart="163.00" departLane="52o_0" departPos="5.10" departSpeed="0.00" departDelay="3.00" arrival="274.00" arrivalLane="51i_0" arrivalPos="10.00" arrivalSpeed="11.15" duration="111.00" routeLength="1015.10" waitSteps="6" timeLoss="35.03" rerouteNo="0" devices="tripinfo_left_35" vType="typeWE" speedFactor="1.00" vaporized=""/>
    <tripinfo id="down_41" depart="172.00" departLane="54o_0" departPos="7.10" departSpeed="0.00" departDelay="0.00" arrival="287.00" arrivalLane="53i_0" arrivalPos="10.00" arrivalSpeed="11.16" duration="115.00" routeLength="1013.10" waitSteps="15" timeLoss="43.71" rerouteNo="0" devices="tripinfo_down_41" vType="typeNS" speedFactor="1.00" vaporized=""/>
    <tripinfo id="left_36" depart="168.00" departLane="52o_0" departPos="5.10" departSpeed="0.00" departDelay="4.00" arrival="308.00" arrivalLane="51i_0" arrivalPos="10.00" arrivalSpeed="10.73" duration="140.00" routeLength="1015.10" waitSteps="26" timeLoss="64.06" rerouteNo="0" devices="tripinfo_left_36" vType="typeWE" speedFactor="1.00" vaporized=""/>
    <tripinfo id="right_43" depart="184.00" departLane="51o_0" departPos="5.10" departSpeed="0.00" departDelay="3.00" arrival="308.00" arrivalLane="52i_0" arrivalPos="10.00" arrivalSpeed="11.45" duration="124.00" routeLength="1015.10" waitSteps="24" timeLoss="47.54" rerouteNo="0" devices="tripinfo_right_43" vType="typeWE" speedFactor="1.00" vaporized=""/>
    <tripinfo id="left_39" depart="173.00" departLane="52o_0" departPos="5.10" departSpeed="0.00" departDelay="4.00" arrival="310.00" arrivalLane="51i_0" arrivalPos="10.00" arrivalSpeed="11.53" duration="137.00" routeLength="1015.10" waitSteps="22" timeLoss="61.08" rerouteNo="0" devices="tripinfo_left_39" vType="typeWE" speedFactor="1.00" vaporized=""/>
    <tripinfo id="right_44" depart="188.00" departLane="51o_0" departPos="5.10" departSpeed="0.00" departDelay="5.00" arrival="310.00" arrivalLane="52i_0" arrivalPos="10.00" arrivalSpeed="11.48" duration="122.00" routeLength="1015.10" waitSteps="19" timeLoss="45.73" rerouteNo="0" devices="tripinfo_right_44" vType="typeWE" speedFactor="1.00" vaporized=""/>
    <tripinfo id="left_40" depart="178.00" departLane="52o_0" departPos="5.10" departSpeed="0.00" departDelay="6.00" arrival="313.00" arrivalLane="51i_0" arrivalPos="10.00" arrivalSpeed="11.66" duration="135.00" routeLength="1015.10" waitSteps="21" timeLoss="58.50" rerouteNo="0" devices="tripinfo_left_40" vType="typeWE" speedFactor="1.00" vaporized=""/>
    <tripinfo id="right_48" depart="200.00" departLane="51o_0" departPos="5.10" departSpeed="0.00" departDelay="0.00" arrival="313.00" arrivalLane="52i_0" arrivalPos="10.00" arrivalSpeed="11.63" duration="113.00" routeLength="1015.10" waitSteps="9" timeLoss="36.86" rerouteNo="0" devices="tripinfo_right_48" vType="typeWE" speedFactor="1.00" vaporized=""/>
    <tripinfo id="left_45" depart="194.00" departLane="52o_0" departPos="5.10" departSpeed="0.00" departDelay="0.00" arrival="315.00" arrivalLane="51i_0" arrivalPos="10.00" arrivalSpeed="11.74" duration="121.00" routeLength="1015.10" waitSteps="17" timeLoss="44.59" rerouteNo="0" devices="tripinfo_left_45" vType="typeWE" speedFactor="1.00" vaporized=""/>
    <tripinfo id="right_50" depart="217.00" departLane="51o_0" departPos="5.10" departSpeed="0.00" departDelay="0.00" arrival="315.00" arrivalLane="52i_0" arrivalPos="10.00" arrivalSpeed="11.40" duration="98.00" routeLength="1015.10" waitSteps="0" timeLoss="21.89" rerouteNo="0" devices="tripinfo_right_50" vType="typeWE" speedFactor="1.00" vaporized=""/>
    <tripinfo id="left_46" depart="199.00" departLane="52o_0" departPos="5.10" departSpeed="0.00" departDelay="3.00" arrival="316.00" arrivalLane="51i_0" arrivalPos="10.00" arrivalSpeed="10.97" duration="117.00" routeLength="1015.10" waitSteps="13" timeLoss="41.00" rerouteNo="0" devices="tripinfo_left_46" vType="typeWE" speedFactor="1.00" vaporized=""/>
    <tripinfo id="down_55" depart="238.00" departLane="54o_0" departPos="7.10" departSpeed="0.00" departDelay="0.00" arrival="328.00" arrivalLane="53i_0" arrivalPos="10.00" arrivalSpeed="11.62" duration="90.00" routeLength="1013.10" waitSteps="0" timeLoss="18.26" rerouteNo="0" devices="tripinfo_down_55" vType="typeNS" speedFactor="1.00" vaporized=""/>
    <tripinfo id="down_57" depart="244.00" departLane="54o_0" departPos="7.10" departSpeed="0.00" departDelay="2.00" arrival="334.00" arrivalLane="53i_0" arrivalPos="10.00" arrivalSpeed="11.46" duration="90.00" routeLength="1013.10" waitSteps="0" timeLoss="18.33" rerouteNo="0" devices="tripinfo_down_57" vType="typeNS" speedFactor="1.00" vaporized=""/>
    <tripinfo id="left_47" depart="204.00" departLane="52o_0" departPos="5.10" departSpeed="0.00" departDelay="5.00" arrival="350.00" arrivalLane="51i_0" arrivalPos="10.00" arrivalSpeed="11.39" duration="146.00" routeLength="1015.10" waitSteps="33" timeLoss="69.95" rerouteNo="0" devices="tripinfo_left_47" vType="typeWE" speedFactor="1.00" vaporized=""/>
    <tripinfo id="right_52" depart="228.00" departLane="51o_0" departPos="5.10" departSpeed="0.00" departDelay="0.00" arrival="351.00" arrivalLane="52i_0" arrivalPos="10.00" arrivalSpeed="11.15" duration="123.00" routeLength="1015.10" waitSteps="21" timeLoss="46.63" rerouteNo="0" devices="tripinfo_right_52" vType="typeWE" speedFactor="1.00" vaporized=""/>
    <tripinfo id="left_49" depart="212.00" departLane="52o_0" departPos="5.10" departSpeed="0.00" departDelay="0.00" arrival="353.00" arrivalLane="51i_0" arrivalPos="10.00" arrivalSpeed="11.35" duration="141.00" routeLength="1015.10" waitSteps="27" timeLoss="64.51" rerouteNo="0" devices="tripinfo_left_49" vType="typeWE" speedFactor="1.00" vaporized=""/>
    <tripinfo id="right_56" depart="240.00" departLane="51o_0" departPos="5.10" departSpeed="0.00" departDelay="0.00" arrival="353.00" arrivalLane="52i_0" arrivalPos="10.00" arrivalSpeed="11.70" duration="113.00" routeLength="1015.10" waitSteps="9" timeLoss="36.61" rerouteNo="0" devices="tripinfo_right_56" vType="typeWE" speedFactor="1.00" vaporized=""/>
    <tripinfo id="left_51" depart="219.00" departLane="52o_0" departPos="5.10" departSpeed="0.00" departDelay="0.00" arrival="355.00" arrivalLane="51i_0" arrivalPos="10.00" arrivalSpeed="11.28" duration="136.00" routeLength="1015.10" waitSteps="22" timeLoss="59.58" rerouteNo="0" devices="tripinfo_left_51" vType="typeWE" speedFactor="1.00" vaporized=""/>
    <tripinfo id="left_53" depart="234.00" departLane="52o_0" departPos="5.10" departSpeed="0.00" departDelay="0.00" arrival="357.00" arrivalLane="51i_0" arrivalPos="10.00" arrivalSpeed="11.79" duration="123.00" routeLength="1015.10" waitSteps="20" timeLoss="46.32" rerouteNo="0" devices="tripinfo_left_53" vType="typeWE" speedFactor="1.00" vaporized=""/>
    <tripinfo id="left_54" depart="239.00" departLane="52o_0" departPos="5.10" departSpeed="0.00" departDelay="1.00" arrival="359.00" arrivalLane="51i_0" arrivalPos="10.00" arrivalSpeed="11.38" duration="120.00" routeLength="1015.10" waitSteps="15" timeLoss="43.63" rerouteNo="0" devices="tripinfo_left_54" vType="typeWE" speedFactor="1.00" vaporized=""/>
    <tripinfo id="down_60" depart="283.00" departLane="54o_0" departPos="7.10" departSpeed="0.00" departDelay="0.00" arrival="371.00" arrivalLane="53i_0" arrivalPos="10.00" arrivalSpeed="11.84" duration="88.00" routeLength="1013.10" waitSteps="0" timeLoss="16.47" rerouteNo="0" devices="tripinfo_down_60" vType="typeNS" speedFactor="1.00" vaporized=""/>
    <tripinfo id="left_58" depart="272.00" departLane="52o_0" departPos="5.10" departSpeed="0.00" departDelay="0.00" arrival="392.00" arrivalLane="51i_0" arrivalPos="10.00" arrivalSpeed="11.54" duration="120.00" routeLength="1015.10" waitSteps="17" timeLoss="43.83" rerouteNo="0" devices="tripinfo_left_58" vType="typeWE" speedFactor="1.00" vaporized=""/>
    <tripinfo id="right_61" depart="284.00" departLane="51o_0" departPos="5.10" departSpeed="0.00" departDelay="0.00" arrival="392.00" arrivalLane="52i_0" arrivalPos="10.00" arrivalSpeed="11.43" duration="108.00" routeLength="1015.10" waitSteps="5" timeLoss="32.18" rerouteNo="0" devices="tripinfo_right_61" vType="typeWE" speedFactor="1.00" vaporized=""/>
    <tripinfo id="left_59" depart="277.00" departLane="52o_0" departPos="5.10" departSpeed="0.00" departDelay="2.00" arrival="394.00" arrivalLane="51i_0" arrivalPos="10.00" arrivalSpeed="11.06" duration="117.00" routeLength="1015.10" waitSteps="15" timeLoss="41.03" rerouteNo="0" devices="tripinfo_left_59" vType="typeWE" speedFactor="1.00" vaporized=""/>
    <tripinfo id="right_62" depart="289.00" departLane="51o_0" departPos="5.10" departSpeed="0.00" departDelay="3.00" arrival="394.00" arrivalLane="52i_0" arrivalPos="10.00" arrivalSpeed="11.34" duration="105.00" routeLength="1015.10" waitSteps="3" timeLoss="29.09" rerouteNo="0" devices="tripinfo_right_62" vType="typeWE" speedFactor="1.00" vaporized=""/>
    <tripinfo id="right_63" depart="295.00" departLane="51o_0" departPos="5.10" departSpeed="0.00" departDelay="7.00" arrival="396.00" arrivalLane="52i_0" arrivalPos="10.00" arrivalSpeed="11.54" duration="101.00" routeLength="1015.10" waitSteps="0" timeLoss="24.93" rerouteNo="0" devices="tripinfo_right_63" vType="typeWE" speedFactor="1.00" vaporized=""/>
    <tripinfo id="right_64" depart="300.00" departLane="51o_0" departPos="5.10" departSpeed="0.00" departDelay="9.00" arrival="398.00" arrivalLane="52i_0" arrivalPos="10.00" arrivalSpeed="11.32" duration="98.00" routeLength="1015.10" waitSteps="0" timeLoss="21.99" rerouteNo="0" devices="tripinfo_right_64" vType="typeWE" speedFactor="1.00" vaporized=""/>
    <tripinfo id="right_65" depart="305.00" departLane="51o_0" departPos="5.10" departSpeed="0.00" departDelay="11.00" arrival="400.00" arrivalLane="52i_0" arrivalPos="10.00" arrivalSpeed="11.49" duration="95.00" routeLength="1015.10" waitSteps="0" timeLoss="18.70" rerouteNo="0" devices="tripinfo_right_65" vType="typeWE" speedFactor="1.00" vaporized=""/>
    <tripinfo id="down_66" depart="302.00" departLane="54o_0" departPos="7.10" departSpeed="0.00" departDelay="0.00" arrival="414.00" arrivalLane="53i_0" arrivalPos="10.00" arrivalSpeed="11.56" duration="112.00" routeLength="1013.10" waitSteps="11" timeLoss="40.46" rerouteNo="0" devices="tripinfo_down_66" vType="typeNS" speedFactor="1.00" vaporized=""/>
    <tripinfo id="down_67" depart="318.00" departLane="54o_0" departPos="7.10" departSpeed="0.00" departDelay="0.00" arrival="416.00" arrivalLane="53i_0" arrivalPos="10.00" arrivalSpeed="11.07" duration="98.00" routeLength="1013.10" waitSteps="0" timeLoss="26.50" rerouteNo="0" devices="tripinfo_down_67" vType="typeNS" speedFactor="1.00" vaporized=""/>
    <tripinfo id="down_69" depart="331.00" departLane="54o_0" departPos="7.10" departSpeed="0.00" departDelay="0.00" arrival="422.00" arrivalLane="53i_0" arrivalPos="10.00" arrivalSpeed="11.74" duration="91.00" routeLength="1013.10" waitSteps="0" timeLoss="18.90" rerouteNo="0" devices="tripinfo_down_69" vType="typeNS" speedFactor="1.00" vaporized=""/>
    <tripinfo id="left_71" depart="339.00" departLane="52o_0" departPos="5.10" departSpeed="0.00" departDelay="0.00" arrival="431.00" arrivalLane="51i_0" arrivalPos="10.00" arrivalSpeed="11.46" duration="92.00" routeLength="1015.10" waitSteps="0" timeLoss="15.74" rerouteNo="0" devices="tripinfo_left_71" vType="typeWE" speedFactor="1.00" vaporized=""/>
    <tripinfo id="right_68" depart="322.00" departLane="51o_0" departPos="5.10" departSpeed="0.00" departDelay="0.00" arrival="435.00" arrivalLane="52i_0" arrivalPos="10.00" arrivalSpeed="11.27" duration="113.00" routeLength="1015.10" waitSteps="9" timeLoss="36.51" rerouteNo="0" devices="tripinfo_right_68" vType="typeWE" speedFactor="1.00" vaporized=""/>
    <tripinfo id="left_73" depart="344.00" departLane="52o_0" departPos="5.10" departSpeed="0.00" departDelay="0.00" arrival="436.00" arrivalLane="51i_0" arrivalPos="10.00" arrivalSpeed="11.43" duration="92.00" routeLength="1015.10" waitSteps="1" timeLoss="15.71" rerouteNo="0" devices="tripinfo_left_73" vType="typeWE" speedFactor="1.00" vaporized=""/>
    <tripinfo id="right_72" depart="342.00" departLane="51o_0" departPos="5.10" departSpeed="0.00" departDelay="0.00" arrival="436.00" arrivalLane="52i_0" arrivalPos="10.00" arrivalSpeed="11.50" duration="94.00" routeLength="1015.10" waitSteps="0" timeLoss="18.03" rerouteNo="0" devices="tripinfo_right_72" vType="typeWE" speedFactor="1.00" vaporized=""/>
    <tripinfo id="down_70" depart="337.00" departLane="54o_0" departPos="7.10" departSpeed="0.00" departDelay="0.00" arrival="456.00" arrivalLane="53i_0" arrivalPos="10.00" arrivalSpeed="11.36" duration="119.00" routeLength="1013.10" waitSteps="18" timeLoss="47.56" rerouteNo="0" devices="tripinfo_down_70" vType="typeNS" speedFactor="1.00" vaporized=""/>
    <tripinfo id="down_74" depart="344.00" departLane="54o_0" departPos="7.10" departSpeed="0.00" departDelay="0.00" arrival="458.00" arrivalLane="53i_0" arrivalPos="10.00" arrivalSpeed="11.50" duration="114.00" routeLength="1013.10" waitSteps="13" timeLoss="42.66" rerouteNo="0" devices="tripinfo_down_74" vType="typeNS" speedFactor="1.00" vaporized=""/>
    <tripinfo id="down_76" depart="350.00" departLane="54o_0" departPos="7.10" departSpeed="0.00" departDelay="1.00" arrival="460.00" arrivalLane="53i_0" arrivalPos="10.00" arrivalSpeed="11.45" duration="110.00" routeLength="1013.10" waitSteps="7" timeLoss="38.64" rerouteNo="0" devices="tripinfo_down_76" vType="typeNS" speedFactor="1.00" vaporized=""/>
    <tripinfo id="right_77" depart="359.00" departLane="51o_0" departPos="5.10" departSpeed="0.00" departDelay="5.00" arrival="476.00" arrivalLane="52i_0" arrivalPos="10.00" arrivalSpeed="11.66" duration="117.00" routeLength="1015.10" waitSteps="15" timeLoss="40.76" rerouteNo="0" devices="tripinfo_right_77" vType="typeWE" speedFactor="1.00" vaporized=""/>
    <tripinfo id="left_75" depart="353.00" departLane="52o_0" departPos="5.10" departSpeed="0.00" departDelay="7.00" arrival="477.00" arrivalLane="51i_0" arrivalPos="10.00" arrivalSpeed="11.79" duration="124.00" routeLength="1015.10" waitSteps="20" timeLoss="47.66" rerouteNo="0" devices="tripinfo_left_75" vType="typeWE" speedFactor="1.00" vaporized=""/>
    <tripinfo id="right_78" depart="375.00" departLane="51o_0" departPos="5.10" departSpeed="0.00" departDelay="0.00" arrival="479.00" arrivalLane="52i_0" arrivalPos="10.00" arrivalSpeed="11.74" duration="104.00" routeLength="1015.10" waitSteps="1" timeLoss="27.58" rerouteNo="0" devices="tripinfo_right_78" vType="typeWE" speedFactor="1.00" vaporized=""/>
    <tripinfo id="left_82" depart="388.00" departLane="52o_0" departPos="5.10" departSpeed="0.00" departDelay="0.00" arrival="480.00" arrivalLane="51i_0" arrivalPos="10.00" arrivalSpeed="11.78" duration="92.00" routeLength="1015.10" waitSteps="0" timeLoss="16.04" rerouteNo="0" devices="tripinfo_left_82" vType="typeWE" speedFactor="1.00" vaporized=""/>
    <tripinfo id="right_81" depart="383.00" departLane="51o_0" departPos="5.10" departSpeed="0.00" departDelay="0.00" arrival="481.00" arrivalLane="52i_0" arrivalPos="10.00" arrivalSpeed="11.33" duration="98.00" routeLength="1015.10" waitSteps="0" timeLoss="21.40" rerouteNo="0" devices="tripinfo_right_81" vType="typeWE" speedFactor="1.00" vaporized=""/>