<?xml version="1.0" encoding="UTF-8"?>

<!-- generated on Sun Mar  4 16:05:09 2018 by SUMO gui Version 0.32.0
<?xml version="1.0" encoding="UTF-8"?>

<configuration xmlns:xsi="http://www.w3.org/2001/XMLSchema-instance" xsi:noNamespaceSchemaLocation="http://sumo.dlr.de/xsd/sumoConfiguration.xsd">

    <input>
        <net-file value="data/cross.net.xml"/>
        <route-files value="data/cross.rou.xml"/>
        <additional-files value="data/cross.det.xml,data/cross.det2.xml"/>
    </input>

    <output>
        <tripinfo-output value="qg_tripinfo.xml"/>
    </output>

    <time>
        <begin value="0"/>
    </time>

    <report>
        <verbose value="true"/>
        <error-log value="errors"/>
        <no-step-log value="true"/>
    </report>

    <traci_server>
        <remote-port value="60573"/>
    </traci_server>

</configuration>
-->

<tripinfos xmlns:xsi="http://www.w3.org/2001/XMLSchema-instance" xsi:noNamespaceSchemaLocation="http://sumo.dlr.de/xsd/tripinfo_file.xsd">
    <tripinfo id="left_0" depart="0.00" departLane="52o_0" departPos="5.10" departSpeed="0.00" departDelay="0.00" arrival="92.00" arrivalLane="51i_0" arrivalPos="10.00" arrivalSpeed="11.58" duration="92.00" routeLength="1015.10" waitSteps="0" timeLoss="15.35" rerouteNo="0" devices="tripinfo_left_0" vType="typeWE" speedFactor="1.00" vaporized=""/>
    <tripinfo id="right_2" depart="3.00" departLane="51o_0" departPos="5.10" departSpeed="0.00" departDelay="0.00" arrival="94.00" arrivalLane="52i_0" arrivalPos="10.00" arrivalSpeed="11.53" duration="91.00" routeLength="1015.10" waitSteps="0" timeLoss="14.32" rerouteNo="0" devices="tripinfo_right_2" vType="typeWE" speedFactor="1.00" vaporized=""/>
    <tripinfo id="left_1" depart="5.00" departLane="52o_0" departPos="5.10" departSpeed="0.00" departDelay="3.00" arrival="96.00" arrivalLane="51i_0" arrivalPos="10.00" arrivalSpeed="11.59" duration="91.00" routeLength="1015.10" waitSteps="0" timeLoss="14.99" rerouteNo="0" devices="tripinfo_left_1" vType="typeWE" speedFactor="1.00" vaporized=""/>
    <tripinfo id="right_3" depart="8.00" departLane="51o_0" departPos="5.10" departSpeed="0.00" departDelay="4.00" arrival="100.00" arrivalLane="52i_0" arrivalPos="10.00" arrivalSpeed="11.25" duration="92.00" routeLength="1015.10" waitSteps="0" timeLoss="15.45" rerouteNo="0" devices="tripinfo_right_3" vType="typeWE" speedFactor="1.00" vaporized=""/>
    <tripinfo id="left_4" depart="10.00" departLane="52o_0" departPos="5.10" departSpeed="0.00" departDelay="6.00" arrival="101.00" arrivalLane="51i_0" arrivalPos="10.00" arrivalSpeed="11.54" duration="91.00" routeLength="1015.10" waitSteps="0" timeLoss="14.72" rerouteNo="0" devices="tripinfo_left_4" vType="typeWE" speedFactor="1.00" vaporized=""/>
    <tripinfo id="right_6" depart="13.00" departLane="51o_0" departPos="5.10" departSpeed="0.00" departDelay="4.00" arrival="104.00" arrivalLane="52i_0" arrivalPos="10.00" arrivalSpeed="10.98" duration="91.00" routeLength="1015.10" waitSteps="0" timeLoss="14.76" rerouteNo="0" devices="tripinfo_right_6" vType="typeWE" speedFactor="1.00" vaporized=""/>
    <tripinfo id="left_5" depart="15.00" departLane="52o_0" departPos="5.10" departSpeed="0.00" departDelay="9.00" arrival="106.00" arrivalLane="51i_0" arrivalPos="10.00" arrivalSpeed="11.72" duration="91.00" routeLength="1015.10" waitSteps="0" timeLoss="14.37" rerouteNo="0" devices="tripinfo_left_5" vType="typeWE" speedFactor="1.00" vaporized=""/>
    <tripinfo id="left_8" depart="20.00" departLane="52o_0" departPos="5.10" departSpeed="0.00" departDelay="5.00" arrival="111.00" arrivalLane="51i_0" arrivalPos="10.00" arrivalSpeed="11.45" duration="91.00" routeLength="1015.10" waitSteps="0" timeLoss="14.66" rerouteNo="0" devices="tripinfo_left_8" vType="typeWE" speedFactor="1.00" vaporized=""/>
    <tripinfo id="left_9" depart="25.00" departLane="52o_0" departPos="5.10" departSpeed="0.00" departDelay="6.00" arrival="116.00" arrivalLane="51i_0" arrivalPos="10.00" arrivalSpeed="11.66" duration="91.00" routeLength="1015.10" waitSteps="0" timeLoss="14.84" rerouteNo="0" devices="tripinfo_left_9" vType="typeWE" speedFactor="1.00" vaporized=""/>
    <tripinfo id="left_10" depart="30.00" departLane="52o_0" departPos="5.10" departSpeed="0.00" departDelay="8.00" arrival="121.00" arrivalLane="51i_0" arrivalPos="10.00" arrivalSpeed="11.48" duration="91.00" routeLength="1015.10" waitSteps="0" timeLoss="14.26" rerouteNo="0" devices="tripinfo_left_10" vType="typeWE" speedFactor="1.00" vaporized=""/>
    <tripinfo id="right_13" depart="30.00" departLane="51o_0" departPos="5.10" departSpeed="0.00" departDelay="0.00" arrival="122.00" arrivalLane="52i_0" arrivalPos="10.00" arrivalSpeed="11.40" duration="92.00" routeLength="1015.10" waitSteps="0" timeLoss="15.25" rerouteNo="0" devices="tripinfo_right_13" vType="typeWE" speedFactor="1.00" vaporized=""/>
    <tripinfo id="left_11" depart="35.00" departLane="52o_0" departPos="5.10" departSpeed="0.00" departDelay="6.00" arrival="126.00" arrivalLane="51i_0" arrivalPos="10.00" arrivalSpeed="11.54" duration="91.00" routeLength="1015.10" waitSteps="0" timeLoss="14.77" rerouteNo="0" devices="tripinfo_left_11" vType="typeWE" speedFactor="1.00" vaporized=""/>
    <tripinfo id="left_14" depart="40.00" departLane="52o_0" departPos="5.10" departSpeed="0.00" departDelay="9.00" arrival="132.00" arrivalLane="51i_0" arrivalPos="10.00" arrivalSpeed="11.44" duration="92.00" routeLength="1015.10" waitSteps="0" timeLoss="15.68" rerouteNo="0" devices="tripinfo_left_14" vType="typeWE" speedFactor="1.00" vaporized=""/>
    <tripinfo id="down_7" depart="13.00" departLane="54o_0" departPos="7.10" departSpeed="0.00" departDelay="0.00" arrival="147.00" arrivalLane="53i_0" arrivalPos="10.00" arrivalSpeed="11.58" duration="134.00" routeLength="1013.10" waitSteps="33" timeLoss="62.27" rerouteNo="0" devices="tripinfo_down_7" vType="typeNS" speedFactor="1.00" vaporized=""/>
    <tripinfo id="down_12" depart="29.00" departLane="54o_0" departPos="7.10" departSpeed="0.00" departDelay="0.00" arrival="149.00" arrivalLane="53i_0" arrivalPos="10.00" arrivalSpeed="11.77" duration="120.00" routeLength="1013.10" waitSteps="19" timeLoss="48.68" rerouteNo="0" devices="tripinfo_down_12" vType="typeNS" speedFactor="1.00" vaporized=""/>
    <tripinfo id="left_15" depart="46.00" departLane="52o_0" departPos="5.10" departSpeed="0.00" departDelay="13.00" arrival="177.00" arrivalLane="51i_0" arrivalPos="10.00" arrivalSpeed="11.39" duration="131.00" routeLength="1015.10" waitSteps="27" timeLoss="54.51" rerouteNo="0" devices="tripinfo_left_15" vType="typeWE" speedFactor="1.00" vaporized=""/>
    <tripinfo id="right_18" depart="42.00" departLane="51o_0" departPos="5.10" departSpeed="0.00" departDelay="0.00" arrival="177.00" arrivalLane="52i_0" arrivalPos="10.00" arrivalSpeed="11.84" duration="135.00" routeLength="1015.10" waitSteps="32" timeLoss="58.46" rerouteNo="0" devices="tripinfo_right_18" vType="typeWE" speedFactor="1.00" vaporized=""/>
    <tripinfo id="left_16" depart="51.00" departLane="52o_0" departPos="5.10" departSpeed="0.00" departDelay="16.00" arrival="179.00" arrivalLane="51i_0" arrivalPos="10.00" arrivalSpeed="11.29" duration="128.00" routeLength="1015.10" waitSteps="24" timeLoss="51.71" rerouteNo="0" devices="tripinfo_left_16" vType="typeWE" speedFactor="1.00" vaporized=""/>
    <tripinfo id="right_23" depart="55.00" departLane="51o_0" departPos="5.10" departSpeed="0.00" departDelay="0.00" arrival="179.00" arrivalLane="52i_0" arrivalPos="10.00" arrivalSpeed="11.63" duration="124.00" routeLength="1015.10" waitSteps="22" timeLoss="47.94" rerouteNo="0" devices="tripinfo_right_23" vType="typeWE" speedFactor="1.00" vaporized=""/>
    <tripinfo id="left_17" depart="56.00" departLane="52o_0" departPos="5.10" departSpeed="0.00" departDelay="15.00" arrival="181.00" arrivalLane="51i_0" arrivalPos="10.00" arrivalSpeed="11.24" duration="125.00" routeLength="1015.10" waitSteps="21" timeLoss="48.70" rerouteNo="0" devices="tripinfo_left_17" vType="typeWE" speedFactor="1.00" vaporized=""/>
    <tripinfo id="right_26" depart="61.00" departLane="51o_0" departPos="5.10" departSpeed="0.00" departDelay="0.00" arrival="181.00" arrivalLane="52i_0" arrivalPos="10.00" arrivalSpeed="11.19" duration="120.00" routeLength="1015.10" waitSteps="16" timeLoss="43.68" rerouteNo="0" devices="tripinfo_right_26" vType="typeWE" speedFactor="1.00" vaporized=""/>
    <tripinfo id="down_33" depart="89.00" departLane="54o_0" departPos="7.10" departSpeed="0.00" departDelay="0.00" arrival="194.00" arrivalLane="53i_0" arrivalPos="10.00" arrivalSpeed="11.47" duration="105.00" routeLength="1013.10" waitSteps="5" timeLoss="33.41" rerouteNo="0" devices="tripinfo_down_33" vType="typeNS" speedFactor="1.00" vaporized=""/>
    <tripinfo id="down_36" depart="96.00" departLane="54o_0" departPos="7.10" departSpeed="0.00" departDelay="0.00" arrival="196.00" arrivalLane="53i_0" arrivalPos="10.00" arrivalSpeed="11.00" duration="100.00" routeLength="1013.10" waitSteps="0" timeLoss="28.48" rerouteNo="0" devices="tripinfo_down_36" vType="typeNS" speedFactor="1.00" vaporized=""/>
    <tripinfo id="down_48" depart="122.00" departLane="54o_0" departPos="7.10" departSpeed="0.00" departDelay="0.00" arrival="210.00" arrivalLane="53i_0" arrivalPos="10.00" arrivalSpeed="11.41" duration="88.00" routeLength="1013.10" waitSteps="0" timeLoss="16.46" rerouteNo="0" devices="tripinfo_down_48" vType="typeNS" speedFactor="1.00" vaporized=""/>
    <tripinfo id="right_27" depart="69.00" departLane="51o_0" departPos="5.10" departSpeed="0.00" departDelay="0.00" arrival="236.00" arrivalLane="52i_0" arrivalPos="10.00" arrivalSpeed="11.03" duration="167.00" routeLength="1015.10" waitSteps="57" timeLoss="91.08" rerouteNo="0" devices="tripinfo_right_27" vType="typeWE" speedFactor="1.00" vaporized=""/>
    <tripinfo id="left_19" depart="61.00" departLane="52o_0" departPos="5.10" departSpeed="0.00" departDelay="16.00" arrival="236.00" arrivalLane="51i_0" arrivalPos="10.00" arrivalSpeed="11.59" duration="175.00" routeLength="1015.10" waitSteps="65" timeLoss="99.22" rerouteNo="0" devices="tripinfo_left_19" vType="typeWE" speedFactor="1.00" vaporized=""/>
    <tripinfo id="right_28" depart="76.00" departLane="51o_0" departPos="5.10" departSpeed="0.00" departDelay="0.00" arrival="238.00" arrivalLane="52i_0" arrivalPos="10.00" arrivalSpeed="11.68" duration="162.00" routeLength="1015.10" waitSteps="50" timeLoss="86.16" rerouteNo="0" devices="tripinfo_right_28" vType="typeWE" speedFactor="1.00" vaporized=""/>
    <tripinfo id="left_20" depart="66.00" departLane="52o_0" departPos="5.10" departSpeed="0.00" departDelay="20.00" arrival="239.00" arrivalLane="51i_0" arrivalPos="10.00" arrivalSpeed="11.59" duration="173.00" routeLength="1015.10" waitSteps="58" timeLoss="96.51" rerouteNo="0" devices="tripinfo_left_20" vType="typeWE" speedFactor="1.00" vaporized=""/>
    <tripinfo id="left_21" depart="72.00" departLane="52o_0" departPos="5.10" departSpeed="0.00" departDelay="21.00" arrival="241.00" arrivalLane="51i_0" arrivalPos="10.00" arrivalSpeed="11.45" duration="169.00" routeLength="1015.10" waitSteps="55" timeLoss="92.47" rerouteNo="0" devices="tripinfo_left_21" vType="typeWE" speedFactor="1.00" vaporized=""/>
    <tripinfo id="right_29" depart="81.00" departLane="51o_0" departPos="5.10" departSpeed="0.00" departDelay="4.00" arrival="241.00" arrivalLane="52i_0" arrivalPos="10.00" arrivalSpeed="11.53" duration="160.00" routeLength="1015.10" waitSteps="48" timeLoss="83.68" rerouteNo="0" devices="tripinfo_right_29" vType="typeWE" speedFactor="1.00" vaporized=""/>
    <tripinfo id="left_22" depart="77.00" departLane="52o_0" departPos="5.10" departSpeed="0.00" departDelay="24.00" arrival="242.00" arrivalLane="51i_0" arrivalPos="10.00" arrivalSpeed="11.70" duration="165.00" routeLength="1015.10" waitSteps="51" timeLoss="89.14" rerouteNo="0" devices="tripinfo_left_22" vType="typeWE" speedFactor="1.00" vaporized=""/>
    <tripinfo id="right_31" depart="86.00" departLane="51o_0" departPos="5.10" departSpeed="0.00" departDelay="2.00" arrival="243.00" arrivalLane="52i_0" arrivalPos="10.00" arrivalSpeed="11.56" duration="157.00" routeLength="1015.10" waitSteps="46" timeLoss="80.88" rerouteNo="0" devices="tripinfo_right_31" vType="typeWE" speedFactor="1.00" vaporized=""/>
    <tripinfo id="left_24" depart="82.00" departLane="52o_0" departPos="5.10" departSpeed="0.00" departDelay="26.00" arrival="244.00" arrivalLane="51i_0" arrivalPos="10.00" arrivalSpeed="11.44" duration="162.00" routeLength="1015.10" waitSteps="48" timeLoss="85.90" rerouteNo="0" devices="tripinfo_left_24" vType="typeWE" speedFactor="1.00" vaporized=""/>
    <tripinfo id="right_35" depart="92.00" departLane="51o_0" departPos="5.10" departSpeed="0.00" departDelay="0.00" arrival="245.00" arrivalLane="52i_0" arrivalPos="10.00" arrivalSpeed="11.46" duration="153.00" routeLength="1015.10" waitSteps="45" timeLoss="76.54" rerouteNo="0" devices="tripinfo_right_35" vType="typeWE" speedFactor="1.00" vaporized=""/>
    <tripinfo id="left_25" depart="87.00" departLane="52o_0" departPos="5.10" departSpeed="0.00" departDelay="29.00" arrival="246.00" arrivalLane="51i_0" arrivalPos="10.00" arrivalSpeed="11.71" duration="159.00" routeLength="1015.10" waitSteps="45" timeLoss="83.05" rerouteNo="0" devices="tripinfo_left_25" vType="typeWE" speedFactor="1.00" vaporized=""/>
    <tripinfo id="right_37" depart="101.00" departLane="51o_0" departPos="5.10" departSpeed="0.00" departDelay="2.00" arrival="247.00" arrivalLane="52i_0" arrivalPos="10.00" arrivalSpeed="11.37" duration="146.00" routeLength="1015.10" waitSteps="42" timeLoss="69.92" rerouteNo="0" devices="tripinfo_right_37" vType="typeWE" speedFactor="1.00" vaporized=""/>
    <tripinfo id="left_30" depart="94.00" departLane="52o_0" departPos="5.10" departSpeed="0.00" departDelay="16.00" arrival="248.00" arrivalLane="51i_0" arrivalPos="10.00" arrivalSpeed="11.48" duration="154.00" routeLength="1015.10" waitSteps="45" timeLoss="77.83" rerouteNo="0" devices="tripinfo_left_30" vType="typeWE" speedFactor="1.00" vaporized=""/>
    <tripinfo id="right_41" depart="106.00" departLane="51o_0" departPos="5.10" departSpeed="0.00" departDelay="0.00" arrival="249.00" arrivalLane="52i_0" arrivalPos="10.00" arrivalSpeed="11.23" duration="143.00" routeLength="1015.10" waitSteps="39" timeLoss="66.70" rerouteNo="0" devices="tripinfo_right_41" vType="typeWE" speedFactor="1.00" vaporized=""/>
    <tripinfo id="left_32" depart="100.00" departLane="52o_0" departPos="5.10" departSpeed="0.00" departDelay="15.00" arrival="250.00" arrivalLane="51i_0" arrivalPos="10.00" arrivalSpeed="11.54" duration="150.00" routeLength="1015.10" waitSteps="44" timeLoss="73.62" rerouteNo="0" devices="tripinfo_left_32" vType="typeWE" speedFactor="1.00" vaporized=""/>
    <tripinfo id="right_42" depart="111.00" departLane="51o_0" departPos="5.10" departSpeed="0.00" departDelay="3.00" arrival="251.00" arrivalLane="52i_0" arrivalPos="10.00" arrivalSpeed="11.18" duration="140.00" routeLength="1015.10" waitSteps="34" timeLoss="63.43" rerouteNo="0" devices="tripinfo_right_42" vType="typeWE" speedFactor="1.00" vaporized=""/>
    <tripinfo id="left_34" depart="105.00" departLane="52o_0" departPos="5.10" departSpeed="0.00" departDelay="14.00" arrival="252.00" arrivalLane="51i_0" arrivalPos="10.00" arrivalSpeed="11.38" duration="147.00" routeLength="1015.10" waitSteps="40" timeLoss="70.40" rerouteNo="0" devices="tripinfo_left_34" vType="typeWE" speedFactor="1.00" vaporized=""/>
    <tripinfo id="left_38" depart="110.00" departLane="52o_0" departPos="5.10" departSpeed="0.00" departDelay="11.00" arrival="253.00" arrivalLane="51i_0" arrivalPos="10.00" arrivalSpeed="10.91" duration="143.00" routeLength="1015.10" waitSteps="37" timeLoss="66.88" rerouteNo="0" devices="tripinfo_left_38" vType="typeWE" speedFactor="1.00" vaporized=""/>
    <tripinfo id="right_43" depart="116.00" departLane="51o_0" departPos="5.10" departSpeed="0.00" departDelay="5.00" arrival="253.00" arrivalLane="52i_0" arrivalPos="10.00" arrivalSpeed="11.55" duration="137.00" routeLength="1015.10" waitSteps="31" timeLoss="60.62" rerouteNo="0" devices="tripinfo_right_43" vType="typeWE" speedFactor="1.00" vaporized=""/>
    <tripinfo id="right_44" depart="121.00" departLane="51o_0" departPos="5.10" departSpeed="0.00" departDelay="7.00" arrival="255.00" arrivalLane="52i_0" arrivalPos="10.00" arrivalSpeed="11.37" duration="134.00" routeLength="1015.10" waitSteps="27" timeLoss="57.67" rerouteNo="0" devices="tripinfo_right_44" vType="typeWE" speedFactor="1.00" vaporized=""/>
    <tripinfo id="left_39" depart="115.00" departLane="52o_0" departPos="5.10" departSpeed="0.00" departDelay="14.00" arrival="256.00" arrivalLane="51i_0" arrivalPos="10.00" arrivalSpeed="11.68" duration="141.00" routeLength="1015.10" waitSteps="35" timeLoss="64.32" rerouteNo="0" devices="tripinfo_left_39" vType="typeWE" speedFactor="1.00" vaporized=""/>
    <tripinfo id="left_40" depart="122.00" departLane="52o_0" departPos="5.10" departSpeed="0.00" departDelay="18.00" arrival="257.00" arrivalLane="51i_0" arrivalPos="10.00" arrivalSpeed="11.43" duration="135.00" routeLength="1015.10" waitSteps="29" timeLoss="59.06" rerouteNo="0" devices="tripinfo_left_40" vType="typeWE" speedFactor="1.00" vaporized=""/>
    <tripinfo id="right_49" depart="126.00" departLane="51o_0" departPos="5.10" departSpeed="0.00" departDelay="1.00" arrival="257.00" arrivalLane="52i_0" arrivalPos="10.00" arrivalSpeed="11.56" duration="131.00" routeLength="1015.10" waitSteps="24" timeLoss="54.70" rerouteNo="0" devices="tripinfo_right_49" vType="typeWE" speedFactor="1.00" vaporized=""/>
    <tripinfo id="right_51" depart="135.00" departLane="51o_0" departPos="5.10" departSpeed="0.00" departDelay="0.00" arrival="259.00" arrivalLane="52i_0" arrivalPos="10.00" arrivalSpeed="11.48" duration="124.00" routeLength="1015.10" waitSteps="15" timeLoss="47.56" rerouteNo="0" devices="tripinfo_right_51" vType="typeWE" speedFactor="1.00" vaporized=""/>
    <tripinfo id="left_45" depart="127.00" departLane="52o_0" departPos="5.10" departSpeed="0.00" departDelay="13.00" arrival="260.00" arrivalLane="51i_0" arrivalPos="10.00" arrivalSpeed="11.64" duration="133.00" routeLength="1015.10" waitSteps="26" timeLoss="57.03" rerouteNo="0" devices="tripinfo_left_45" vType="typeWE" speedFactor="1.00" vaporized=""/>
    <tripinfo id="right_53" depart="141.00" departLane="51o_0" departPos="5.10" departSpeed="0.00" departDelay="3.00" arrival="261.00" arrivalLane="52i_0" arrivalPos="10.00" arrivalSpeed="11.58" duration="120.00" routeLength="1015.10" waitSteps="12" timeLoss="43.46" rerouteNo="0" devices="tripinfo_right_53" vType="typeWE" speedFactor="1.00" vaporized=""/>
    <tripinfo id="left_46" depart="132.00" departLane="52o_0" departPos="5.10" departSpeed="0.00" departDelay="14.00" arrival="262.00" arrivalLane="51i_0" arrivalPos="10.00" arrivalSpeed="11.47" duration="130.00" routeLength="1015.10" waitSteps="21" timeLoss="54.16" rerouteNo="0" devices="tripinfo_left_46" vType="typeWE" speedFactor="1.00" vaporized=""/>
    <tripinfo id="right_57" depart="146.00" departLane="51o_0" departPos="5.10" departSpeed="0.00" departDelay="2.00" arrival="263.00" arrivalLane="52i_0" arrivalPos="10.00" arrivalSpeed="11.50" duration="117.00" routeLength="1015.10" waitSteps="9" timeLoss="40.30" rerouteNo="0" devices="tripinfo_right_57" vType="typeWE" speedFactor="1.00" vaporized=""/>
    <tripinfo id="left_47" depart="137.00" departLane="52o_0" departPos="5.10" departSpeed="0.00" departDelay="18.00" arrival="264.00" arrivalLane="51i_0" arrivalPos="10.00" arrivalSpeed="11.51" duration="127.00" routeLength="1015.10" waitSteps="18" timeLoss="51.01" rerouteNo="0" devices="tripinfo_left_47" vType="typeWE" speedFactor="1.00" vaporized=""/>
    <tripinfo id="right_58" depart="151.00" departLane="51o_0" departPos="5.10" departSpeed="0.00" departDelay="6.00" arrival="264.00" arrivalLane="52i_0" arrivalPos="10.00" arrivalSpeed="11.53" duration="113.00" routeLength="1015.10" waitSteps="4" timeLoss="37.06" rerouteNo="0" devices="tripinfo_right_58" vType="typeWE" speedFactor="1.00" vaporized=""/>
    <tripinfo id="left_50" depart="142.00" departLane="52o_0" departPos="5.10" departSpeed="0.00" departDelay="11.00" arrival="266.00" arrivalLane="51i_0" arrivalPos="10.00" arrivalSpeed="11.22" duration="124.00" routeLength="1015.10" waitSteps="15" timeLoss="47.87" rerouteNo="0" devices="tripinfo_left_50" vType="typeWE" speedFactor="1.00" vaporized=""/>
    <tripinfo id="right_60" depart="156.00" departLane="51o_0" departPos="5.10" departSpeed="0.00" departDelay="1.00" arrival="266.00" arrivalLane="52i_0" arrivalPos="10.00" arrivalSpeed="11.58" duration="110.00" routeLength="1015.10" waitSteps="1" timeLoss="33.99" rerouteNo="0" devices="tripinfo_right_60" vType="typeWE" speedFactor="1.00" vaporized=""/>
    <tripinfo id="left_52" depart="147.00" departLane="52o_0" departPos="5.10" departSpeed="0.00" departDelay="12.00" arrival="268.00" arrivalLane="51i_0" arrivalPos="10.00" arrivalSpeed="11.68" duration="121.00" routeLength="1015.10" waitSteps="13" timeLoss="44.67" rerouteNo="0" devices="tripinfo_left_52" vType="typeWE" speedFactor="1.00" vaporized=""/>
    <tripinfo id="right_65" depart="167.00" departLane="51o_0" departPos="5.10" departSpeed="0.00" departDelay="0.00" arrival="268.00" arrivalLane="52i_0" arrivalPos="10.00" arrivalSpeed="11.43" duration="101.00" routeLength="1015.10" waitSteps="0" timeLoss="24.94" rerouteNo="0" devices="tripinfo_right_65" vType="typeWE" speedFactor="1.00" vaporized=""/>
    <tripinfo id="left_54" depart="152.00" departLane="52o_0" departPos="5.10" departSpeed="0.00" departDelay="14.00" arrival="270.00" arrivalLane="51i_0" arrivalPos="10.00" arrivalSpeed="11.19" duration="118.00" routeLength="1015.10" waitSteps="8" timeLoss="41.42" rerouteNo="0" devices="tripinfo_left_54" vType="typeWE" speedFactor="1.00" vaporized=""/>
    <tripinfo id="right_66" depart="172.00" departLane="51o_0" departPos="5.10" departSpeed="0.00" departDelay="4.00" arrival="270.00" arrivalLane="52i_0" arrivalPos="10.00" arrivalSpeed="11.30" duration="98.00" routeLength="1015.10" waitSteps="0" timeLoss="21.50" rerouteNo="0" devices="tripinfo_right_66" vType="typeWE" speedFactor="1.00" vaporized=""/>
    <tripinfo id="left_55" depart="157.00" departLane="52o_0" departPos="5.10" departSpeed="0.00" departDelay="15.00" arrival="272.00" arrivalLane="51i_0" arrivalPos="10.00" arrivalSpeed="11.84" duration="115.00" routeLength="1015.10" waitSteps="6" timeLoss="38.23" rerouteNo="0" devices="tripinfo_left_55" vType="typeWE" speedFactor="1.00" vaporized=""/>
    <tripinfo id="right_70" depart="181.00" departLane="51o_0" departPos="5.10" departSpeed="0.00" departDelay="5.00" arrival="272.00" arrivalLane="52i_0" arrivalPos="10.00" arrivalSpeed="11.33" duration="91.00" routeLength="1015.10" waitSteps="0" timeLoss="14.31" rerouteNo="0" devices="tripinfo_right_70" vType="typeWE" speedFactor="1.00" vaporized=""/>
    <tripinfo id="left_56" depart="162.00" departLane="52o_0" departPos="5.10" departSpeed="0.00" departDelay="19.00" arrival="273.00" arrivalLane="51i_0" arrivalPos="10.00" arrivalSpeed="11.63" duration="111.00" routeLength="1015.10" waitSteps="3" timeLoss="35.07" rerouteNo="0" devices="tripinfo_left_56" vType="typeWE" speedFactor="1.00" vaporized=""/>
    <tripinfo id="left_59" depart="167.00" departLane="52o_0" departPos="5.10" departSpeed="0.00" departDelay="14.00" arrival="275.00" arrivalLane="51i_0" arrivalPos="10.00" arrivalSpeed="11.52" duration="108.00" routeLength="1015.10" waitSteps="0" timeLoss="31.93" rerouteNo="0" devices="tripinfo_left_59" vType="typeWE" speedFactor="1.00" vaporized=""/>
    <tripinfo id="left_61" depart="172.00" departLane="52o_0" departPos="5.10" departSpeed="0.00" departDelay="16.00" arrival="277.00" arrivalLane="51i_0" arrivalPos="10.00" arrivalSpeed="11.32" duration="105.00" routeLength="1015.10" waitSteps="0" timeLoss="28.53" rerouteNo="0" devices="tripinfo_left_61" vType="typeWE" speedFactor="1.00" vaporized=""/>
    <tripinfo id="right_72" depart="186.00" departLane="51o_0" departPos="5.10" departSpeed="0.00" departDelay="5.00" arrival="278.00" arrivalLane="52i_0" arrivalPos="10.00" arrivalSpeed="11.29" duration="92.00" routeLength="1015.10" waitSteps="0" timeLoss="15.82" rerouteNo="0" devices="tripinfo_right_72" vType="typeWE" speedFactor="1.00" vaporized=""/>
    <tripinfo id="left_62" depart="177.00" departLane="52o_0" departPos="5.10" departSpeed="0.00" departDelay="17.00" arrival="279.00" arrivalLane="51i_0" arrivalPos="10.00" arrivalSpeed="11.52" duration="102.00" routeLength="1015.10" waitSteps="0" timeLoss="25.33" rerouteNo="0" devices="tripinfo_left_62" vType="typeWE" speedFactor="1.00" vaporized=""/>
    <tripinfo id="left_63" depart="182.00" departLane="52o_0" departPos="5.10" departSpeed="0.00" departDelay="18.00" arrival="280.00" arrivalLane="51i_0" arrivalPos="10.00" arrivalSpeed="11.02" duration="98.00" routeLength="1015.10" waitSteps="0" timeLoss="21.90" rerouteNo="0" devices="tripinfo_left_63" vType="typeWE" speedFactor="1.00" vaporized=""/>
    <tripinfo id="left_64" depart="187.00" departLane="52o_0" departPos="5.10" departSpeed="0.00" departDelay="21.00" arrival="282.00" arrivalLane="51i_0" arrivalPos="10.00" arrivalSpeed="11.63" duration="95.00" routeLength="1015.10" waitSteps="0" timeLoss="19.04" rerouteNo="0" devices="tripinfo_left_64" vType="typeWE" speedFactor="1.00" vaporized=""/>
    <tripinfo id="right_73" depart="191.00" departLane="51o_0" departPos="5.10" departSpeed="0.00" departDelay="8.00" arrival="282.00" arrivalLane="52i_0" arrivalPos="10.00" arrivalSpeed="11.68" duration="91.00" routeLength="1015.10" waitSteps="0" timeLoss="15.09" rerouteNo="0" devices="tripinfo_right_73" vType="typeWE" speedFactor="1.00" vaporized=""/>
    <tripinfo id="left_67" depart="192.00" departLane="52o_0" departPos="5.10" departSpeed="0.00" departDelay="23.00" arrival="284.00" arrivalLane="51i_0" arrivalPos="10.00" arrivalSpeed="11.43" duration="92.00" routeLength="1015.10" waitSteps="0" timeLoss="15.94" rerouteNo="0" devices="tripinfo_left_67" vType="typeWE" speedFactor="1.00" vaporized=""/>
    <tripinfo id="right_74" depart="196.00" departLane="51o_0" departPos="5.10" departSpeed="0.00" departDelay="12.00" arrival="287.00" arrivalLane="52i_0" arrivalPos="10.00" arrivalSpeed="11.49" duration="91.00" routeLength="1015.10" waitSteps="0" timeLoss="14.82" rerouteNo="0" devices="tripinfo_right_74" vType="typeWE" speedFactor="1.00" vaporized=""/>
    <tripinfo id="left_68" depart="197.00" departLane="52o_0" departPos="5.10" departSpeed="0.00" departDelay="25.00" arrival="289.00" arrivalLane="51i_0" arrivalPos="10.00" arrivalSpeed="11.82" duration="92.00" routeLength="1015.10" waitSteps="0" timeLoss="15.70" rerouteNo="0" devices="tripinfo_left_68" vType="typeWE" speedFactor="1.00" vaporized=""/>
    <tripinfo id="right_78" depart="201.00" departLane="51o_0" departPos="5.10" departSpeed="0.00" departDelay="4.00" arrival="292.00" arrivalLane="52i_0" arrivalPos="10.00" arrivalSpeed="10.95" duration="91.00" routeLength="1015.10" waitSteps="0" timeLoss="14.85" rerouteNo="0" devices="tripinfo_right_78" vType="typeWE" speedFactor="1.00" vaporized=""/>
    <tripinfo id="left_71" depart="203.00" departLane="52o_0" departPos="5.10" departSpeed="0.00" departDelay="27.00" arrival="294.00" arrivalLane="51i_0" arrivalPos="10.00" arrivalSpeed="11.63" duration="91.00" routeLength="1015.10" waitSteps="0" timeLoss="14.74" rerouteNo="0" devices="tripinfo_left_71" vType="typeWE" speedFactor="1.00" vaporized=""/>
    <tripinfo id="left_75" depart="208.00" departLane="52o_0" departPos="5.10" departSpeed="0.00" departDelay="23.00" arrival="298.00" arrivalLane="51i_0" arrivalPos="10.00" arrivalSpeed="11.57" duration="90.00" routeLength="1015.10" waitSteps="0" timeLoss="14.04" rerouteNo="0" devices="tripinfo_left_75" vType="typeWE" speedFactor="1.00" vaporized=""/>
    <tripinfo id="right_80" depart="206.00" departLane="51o_0" departPos="5.10" departSpeed="0.00" departDelay="6.00" arrival="298.00" arrivalLane="52i_0" arrivalPos="10.00" arrivalSpeed="11.51" duration="92.00" routeLength="1015.10" waitSteps="0" timeLoss="15.41" rerouteNo="0" devices="tripinfo_right_80" vType="typeWE" speedFactor="1.00" vaporized=""/>
    <tripinfo id="left_76" depart="213.00" departLane="52o_0" departPos="5.10" departSpeed="0.00" departDelay="19.00" arrival="304.00" arrivalLane="51i_0" arrivalPos="10.00" arrivalSpeed="11.50" duration="91.00" routeLength="1015.10" waitSteps="0" timeLoss="15.02" rerouteNo="0" devices="tripinfo_left_76" vType="typeWE" speedFactor="1.00" vaporized=""/>
    <tripinfo id="right_81" depart="211.00" departLane="51o_0" departPos="5.10" departSpeed="0.00" departDelay="4.00" arrival="304.00" arrivalLane="52i_0" arrivalPos="10.00" arrivalSpeed="11.51" duration="93.00" routeLength="1015.10" waitSteps="0" timeLoss="16.40" rerouteNo="0" devices="tripinfo_right_81" vType="typeWE" speedFactor="1.00" vaporized=""/>
    <tripinfo id="left_77" depart="218.00" departLane="52o_0" departPos="5.10" departSpeed="0.00" departDelay="22.00" arrival="309.00" arrivalLane="51i_0" arrivalPos="10.00" arrivalSpeed="11.42" duration="91.00" routeLength="1015.10" waitSteps="0" timeLoss="14.65" rerouteNo="0" devices="tripinfo_left_77" vType="typeWE" speedFactor="1.00" vaporized=""/>
    <tripinfo id="right_83" depart="217.00" departLane="51o_0" departPos="5.10" departSpeed="0.00" departDelay="6.00" arrival="309.00" arrivalLane="52i_0" arrivalPos="10.00" arrivalSpeed="11.48" duration="92.00" routeLength="1015.10" waitSteps="0" timeLoss="15.69" rerouteNo="0" devices="tripinfo_right_83" vType="typeWE" speedFactor="1.00" vaporized=""/>