<?xml version="1.0" encoding="UTF-8"?>

<!-- generated on Sun Feb 25 19:26:29 2018 by SUMO Version 0.32.0
<?xml version="1.0" encoding="UTF-8"?>

<configuration xmlns:xsi="http://www.w3.org/2001/XMLSchema-instance" xsi:noNamespaceSchemaLocation="http://sumo.dlr.de/xsd/sumoConfiguration.xsd">

    <input>
        <net-file value="data/cross.net.xml"/>
        <route-files value="data/cross.rou.xml"/>
        <additional-files value="data/cross.det.xml,data/cross.det2.xml"/>
    </input>

    <output>
        <tripinfo-output value="ql_tripinfo.xml"/>
    </output>

    <time>
        <begin value="0"/>
    </time>

    <report>
        <verbose value="true"/>
        <error-log value="errors"/>
        <no-step-log value="true"/>
    </report>

    <traci_server>
        <remote-port value="52797"/>
    </traci_server>

</configuration>
-->

<tripinfos xmlns:xsi="http://www.w3.org/2001/XMLSchema-instance" xsi:noNamespaceSchemaLocation="http://sumo.dlr.de/xsd/tripinfo_file.xsd">
    <tripinfo id="left_0" depart="0.00" departLane="52o_0" departPos="5.10" departSpeed="0.00" departDelay="0.00" arrival="110.00" arrivalLane="51i_0" arrivalPos="10.00" arrivalSpeed="11.70" duration="110.00" routeLength="1015.10" waitSteps="8" timeLoss="34.06" rerouteNo="0" devices="tripinfo_left_0" vType="typeWE" speedFactor="1.00" vaporized=""/>
    <tripinfo id="right_2" depart="3.00" departLane="51o_0" departPos="5.10" departSpeed="0.00" departDelay="0.00" arrival="110.00" arrivalLane="52i_0" arrivalPos="10.00" arrivalSpeed="11.65" duration="107.00" routeLength="1015.10" waitSteps="5" timeLoss="30.57" rerouteNo="0" devices="tripinfo_right_2" vType="typeWE" speedFactor="1.00" vaporized=""/>
    <tripinfo id="left_1" depart="5.00" departLane="52o_0" departPos="5.10" departSpeed="0.00" departDelay="3.00" arrival="112.00" arrivalLane="51i_0" arrivalPos="10.00" arrivalSpeed="11.66" duration="107.00" routeLength="1015.10" waitSteps="4" timeLoss="31.05" rerouteNo="0" devices="tripinfo_left_1" vType="typeWE" speedFactor="1.00" vaporized=""/>
    <tripinfo id="right_3" depart="8.00" departLane="51o_0" departPos="5.10" departSpeed="0.00" departDelay="4.00" arrival="113.00" arrivalLane="52i_0" arrivalPos="10.00" arrivalSpeed="11.46" duration="105.00" routeLength="1015.10" waitSteps="1" timeLoss="28.53" rerouteNo="0" devices="tripinfo_right_3" vType="typeWE" speedFactor="1.00" vaporized=""/>
    <tripinfo id="down_6" depart="13.00" departLane="54o_0" departPos="7.10" departSpeed="0.00" departDelay="0.00" arrival="123.00" arrivalLane="53i_0" arrivalPos="10.00" arrivalSpeed="11.59" duration="110.00" routeLength="1013.10" waitSteps="8" timeLoss="38.56" rerouteNo="0" devices="tripinfo_down_6" vType="typeNS" speedFactor="1.00" vaporized=""/>
    <tripinfo id="left_4" depart="10.00" departLane="52o_0" departPos="5.10" departSpeed="0.00" departDelay="4.00" arrival="134.00" arrivalLane="51i_0" arrivalPos="10.00" arrivalSpeed="11.42" duration="124.00" routeLength="1015.10" waitSteps="16" timeLoss="48.27" rerouteNo="0" devices="tripinfo_left_4" vType="typeWE" speedFactor="1.00" vaporized=""/>
    <tripinfo id="right_5" depart="13.00" departLane="51o_0" departPos="5.10" departSpeed="0.00" departDelay="4.00" arrival="135.00" arrivalLane="52i_0" arrivalPos="10.00" arrivalSpeed="11.52" duration="122.00" routeLength="1015.10" waitSteps="15" timeLoss="45.39" rerouteNo="0" devices="tripinfo_right_5" vType="typeWE" speedFactor="1.00" vaporized=""/>
    <tripinfo id="left_7" depart="22.00" departLane="52o_0" departPos="5.10" departSpeed="0.00" departDelay="0.00" arrival="137.00" arrivalLane="51i_0" arrivalPos="10.00" arrivalSpeed="11.38" duration="115.00" routeLength="1015.10" waitSteps="12" timeLoss="38.44" rerouteNo="0" devices="tripinfo_left_7" vType="typeWE" speedFactor="1.00" vaporized=""/>
    <tripinfo id="down_8" depart="29.00" departLane="54o_0" departPos="7.10" departSpeed="0.00" departDelay="0.00" arrival="146.00" arrivalLane="53i_0" arrivalPos="10.00" arrivalSpeed="11.43" duration="117.00" routeLength="1013.10" waitSteps="15" timeLoss="45.75" rerouteNo="0" devices="tripinfo_down_8" vType="typeNS" speedFactor="1.00" vaporized=""/>
    <tripinfo id="left_9" depart="31.00" departLane="52o_0" departPos="5.10" departSpeed="0.00" departDelay="0.00" arrival="158.00" arrivalLane="51i_0" arrivalPos="10.00" arrivalSpeed="11.33" duration="127.00" routeLength="1015.10" waitSteps="19" timeLoss="50.64" rerouteNo="0" devices="tripinfo_left_9" vType="typeWE" speedFactor="1.00" vaporized=""/>
    <tripinfo id="right_12" depart="42.00" departLane="51o_0" departPos="5.10" departSpeed="0.00" departDelay="0.00" arrival="159.00" arrivalLane="52i_0" arrivalPos="10.00" arrivalSpeed="11.51" duration="117.00" routeLength="1015.10" waitSteps="13" timeLoss="40.67" rerouteNo="0" devices="tripinfo_right_12" vType="typeWE" speedFactor="1.00" vaporized=""/>
    <tripinfo id="left_10" depart="36.00" departLane="52o_0" departPos="5.10" departSpeed="0.00" departDelay="3.00" arrival="182.00" arrivalLane="51i_0" arrivalPos="10.00" arrivalSpeed="11.53" duration="146.00" routeLength="1015.10" waitSteps="29" timeLoss="69.61" rerouteNo="0" devices="tripinfo_left_10" vType="typeWE" speedFactor="1.00" vaporized=""/>
    <tripinfo id="right_15" depart="55.00" departLane="51o_0" departPos="5.10" departSpeed="0.00" departDelay="0.00" arrival="182.00" arrivalLane="52i_0" arrivalPos="10.00" arrivalSpeed="11.82" duration="127.00" routeLength="1015.10" waitSteps="21" timeLoss="51.13" rerouteNo="0" devices="tripinfo_right_15" vType="typeWE" speedFactor="1.00" vaporized=""/>
    <tripinfo id="left_11" depart="41.00" departLane="52o_0" departPos="5.10" departSpeed="0.00" departDelay="0.00" arrival="184.00" arrivalLane="51i_0" arrivalPos="10.00" arrivalSpeed="11.71" duration="143.00" routeLength="1015.10" waitSteps="28" timeLoss="67.09" rerouteNo="0" devices="tripinfo_left_11" vType="typeWE" speedFactor="1.00" vaporized=""/>
    <tripinfo id="right_16" depart="61.00" departLane="51o_0" departPos="5.10" departSpeed="0.00" departDelay="0.00" arrival="185.00" arrivalLane="52i_0" arrivalPos="10.00" arrivalSpeed="11.74" duration="124.00" routeLength="1015.10" waitSteps="17" timeLoss="47.39" rerouteNo="0" devices="tripinfo_right_16" vType="typeWE" speedFactor="1.00" vaporized=""/>
    <tripinfo id="right_17" depart="69.00" departLane="51o_0" departPos="5.10" departSpeed="0.00" departDelay="0.00" arrival="186.00" arrivalLane="52i_0" arrivalPos="10.00" arrivalSpeed="11.25" duration="117.00" routeLength="1015.10" waitSteps="13" timeLoss="41.15" rerouteNo="0" devices="tripinfo_right_17" vType="typeWE" speedFactor="1.00" vaporized=""/>
    <tripinfo id="left_13" depart="46.00" departLane="52o_0" departPos="5.10" departSpeed="0.00" departDelay="1.00" arrival="187.00" arrivalLane="51i_0" arrivalPos="10.00" arrivalSpeed="11.54" duration="141.00" routeLength="1015.10" waitSteps="28" timeLoss="64.88" rerouteNo="0" devices="tripinfo_left_13" vType="typeWE" speedFactor="1.00" vaporized=""/>
    <tripinfo id="down_20" depart="89.00" departLane="54o_0" departPos="7.10" departSpeed="0.00" departDelay="0.00" arrival="200.00" arrivalLane="53i_0" arrivalPos="10.00" arrivalSpeed="10.82" duration="111.00" routeLength="1013.10" waitSteps="11" timeLoss="39.48" rerouteNo="0" devices="tripinfo_down_20" vType="typeNS" speedFactor="1.00" vaporized=""/>
    <tripinfo id="right_18" depart="84.00" departLane="51o_0" departPos="5.10" departSpeed="0.00" departDelay="0.00" arrival="212.00" arrivalLane="52i_0" arrivalPos="10.00" arrivalSpeed="11.02" duration="128.00" routeLength="1015.10" waitSteps="16" timeLoss="51.98" rerouteNo="0" devices="tripinfo_right_18" vType="typeWE" speedFactor="1.00" vaporized=""/>
    <tripinfo id="left_14" depart="53.00" departLane="52o_0" departPos="5.10" departSpeed="0.00" departDelay="0.00" arrival="213.00" arrivalLane="51i_0" arrivalPos="10.00" arrivalSpeed="11.73" duration="160.00" routeLength="1015.10" waitSteps="41" timeLoss="83.43" rerouteNo="0" devices="tripinfo_left_14" vType="typeWE" speedFactor="1.00" vaporized=""/>
    <tripinfo id="right_22" depart="99.00" departLane="51o_0" departPos="5.10" departSpeed="0.00" departDelay="0.00" arrival="214.00" arrivalLane="52i_0" arrivalPos="10.00" arrivalSpeed="11.68" duration="115.00" routeLength="1015.10" waitSteps="13" timeLoss="39.24" rerouteNo="0" devices="tripinfo_right_22" vType="typeWE" speedFactor="1.00" vaporized=""/>
    <tripinfo id="left_19" depart="85.00" departLane="52o_0" departPos="5.10" departSpeed="0.00" departDelay="0.00" arrival="215.00" arrivalLane="51i_0" arrivalPos="10.00" arrivalSpeed="11.78" duration="130.00" routeLength="1015.10" waitSteps="17" timeLoss="53.37" rerouteNo="0" devices="tripinfo_left_19" vType="typeWE" speedFactor="1.00" vaporized=""/>
    <tripinfo id="right_24" depart="108.00" departLane="51o_0" departPos="5.10" departSpeed="0.00" departDelay="0.00" arrival="216.00" arrivalLane="52i_0" arrivalPos="10.00" arrivalSpeed="11.54" duration="108.00" routeLength="1015.10" waitSteps="4" timeLoss="32.18" rerouteNo="0" devices="tripinfo_right_24" vType="typeWE" speedFactor="1.00" vaporized=""/>
    <tripinfo id="left_23" depart="99.00" departLane="52o_0" departPos="5.10" departSpeed="0.00" departDelay="0.00" arrival="217.00" arrivalLane="51i_0" arrivalPos="10.00" arrivalSpeed="11.55" duration="118.00" routeLength="1015.10" waitSteps="14" timeLoss="41.62" rerouteNo="0" devices="tripinfo_left_23" vType="typeWE" speedFactor="1.00" vaporized=""/>
    <tripinfo id="right_25" depart="114.00" departLane="51o_0" departPos="5.10" departSpeed="0.00" departDelay="0.00" arrival="218.00" arrivalLane="52i_0" arrivalPos="10.00" arrivalSpeed="11.65" duration="104.00" routeLength="1015.10" waitSteps="1" timeLoss="27.99" rerouteNo="0" devices="tripinfo_right_25" vType="typeWE" speedFactor="1.00" vaporized=""/>
    <tripinfo id="down_21" depart="96.00" departLane="54o_0" departPos="7.10" departSpeed="0.00" departDelay="0.00" arrival="230.00" arrivalLane="53i_0" arrivalPos="10.00" arrivalSpeed="11.75" duration="134.00" routeLength="1013.10" waitSteps="29" timeLoss="62.78" rerouteNo="0" devices="tripinfo_down_21" vType="typeNS" speedFactor="1.00" vaporized=""/>
    <tripinfo id="right_27" depart="125.00" departLane="51o_0" departPos="5.10" departSpeed="0.00" departDelay="0.00" arrival="242.00" arrivalLane="52i_0" arrivalPos="10.00" arrivalSpeed="11.29" duration="117.00" routeLength="1015.10" waitSteps="14" timeLoss="41.23" rerouteNo="0" devices="tripinfo_right_27" vType="typeWE" speedFactor="1.00" vaporized=""/>
    <tripinfo id="left_28" depart="131.00" departLane="52o_0" departPos="5.10" departSpeed="0.00" departDelay="0.00" arrival="243.00" arrivalLane="51i_0" arrivalPos="10.00" arrivalSpeed="11.64" duration="112.00" routeLength="1015.10" waitSteps="9" timeLoss="35.63" rerouteNo="0" devices="tripinfo_left_28" vType="typeWE" speedFactor="1.00" vaporized=""/>
    <tripinfo id="left_29" depart="136.00" departLane="52o_0" departPos="5.10" departSpeed="0.00" departDelay="1.00" arrival="245.00" arrivalLane="51i_0" arrivalPos="10.00" arrivalSpeed="11.58" duration="109.00" routeLength="1015.10" waitSteps="6" timeLoss="32.62" rerouteNo="0" devices="tripinfo_left_29" vType="typeWE" speedFactor="1.00" vaporized=""/>
    <tripinfo id="down_26" depart="122.00" departLane="54o_0" departPos="7.10" departSpeed="0.00" departDelay="0.00" arrival="255.00" arrivalLane="53i_0" arrivalPos="10.00" arrivalSpeed="11.45" duration="133.00" routeLength="1013.10" waitSteps="26" timeLoss="61.59" rerouteNo="0" devices="tripinfo_down_26" vType="typeNS" speedFactor="1.00" vaporized=""/>
    <tripinfo id="right_32" depart="145.00" departLane="51o_0" departPos="5.10" departSpeed="0.00" departDelay="0.00" arrival="266.00" arrivalLane="52i_0" arrivalPos="10.00" arrivalSpeed="11.44" duration="121.00" routeLength="1015.10" waitSteps="18" timeLoss="45.01" rerouteNo="0" devices="tripinfo_right_32" vType="typeWE" speedFactor="1.00" vaporized=""/>
    <tripinfo id="left_30" depart="141.00" departLane="52o_0" departPos="5.10" departSpeed="0.00" departDelay="3.00" arrival="267.00" arrivalLane="51i_0" arrivalPos="10.00" arrivalSpeed="11.59" duration="126.00" routeLength="1015.10" waitSteps="15" timeLoss="49.75" rerouteNo="0" devices="tripinfo_left_30" vType="typeWE" speedFactor="1.00" vaporized=""/>
    <tripinfo id="down_41" depart="172.00" departLane="54o_0" departPos="7.10" departSpeed="0.00" departDelay="0.00" arrival="279.00" arrivalLane="53i_0" arrivalPos="10.00" arrivalSpeed="11.79" duration="107.00" routeLength="1013.10" waitSteps="6" timeLoss="35.33" rerouteNo="0" devices="tripinfo_down_41" vType="typeNS" speedFactor="1.00" vaporized=""/>
    <tripinfo id="left_31" depart="146.00" departLane="52o_0" departPos="5.10" departSpeed="0.00" departDelay="4.00" arrival="296.00" arrivalLane="51i_0" arrivalPos="10.00" arrivalSpeed="11.64" duration="150.00" routeLength="1015.10" waitSteps="38" timeLoss="74.25" rerouteNo="0" devices="tripinfo_left_31" vType="typeWE" speedFactor="1.00" vaporized=""/>
    <tripinfo id="right_37" depart="167.00" departLane="51o_0" departPos="5.10" departSpeed="0.00" departDelay="0.00" arrival="296.00" arrivalLane="52i_0" arrivalPos="10.00" arrivalSpeed="11.51" duration="129.00" routeLength="1015.10" waitSteps="24" timeLoss="53.00" rerouteNo="0" devices="tripinfo_right_37" vType="typeWE" speedFactor="1.00" vaporized=""/>
    <tripinfo id="left_33" depart="153.00" departLane="52o_0" departPos="5.10" departSpeed="0.00" departDelay="0.00" arrival="298.00" arrivalLane="51i_0" arrivalPos="10.00" arrivalSpeed="11.50" duration="145.00" routeLength="1015.10" waitSteps="36" timeLoss="69.14" rerouteNo="0" devices="tripinfo_left_33" vType="typeWE" speedFactor="1.00" vaporized=""/>
    <tripinfo id="right_38" depart="172.00" departLane="51o_0" departPos="5.10" departSpeed="0.00" departDelay="4.00" arrival="299.00" arrivalLane="52i_0" arrivalPos="10.00" arrivalSpeed="11.74" duration="127.00" routeLength="1015.10" waitSteps="23" timeLoss="50.70" rerouteNo="0" devices="tripinfo_right_38" vType="typeWE" speedFactor="1.00" vaporized=""/>
    <tripinfo id="left_34" depart="159.00" departLane="52o_0" departPos="5.10" departSpeed="0.00" departDelay="3.00" arrival="300.00" arrivalLane="51i_0" arrivalPos="10.00" arrivalSpeed="11.43" duration="141.00" routeLength="1015.10" waitSteps="32" timeLoss="65.07" rerouteNo="0" devices="tripinfo_left_34" vType="typeWE" speedFactor="1.00" vaporized=""/>
    <tripinfo id="right_42" depart="177.00" departLane="51o_0" departPos="5.10" departSpeed="0.00" departDelay="1.00" arrival="301.00" arrivalLane="52i_0" arrivalPos="10.00" arrivalSpeed="11.46" duration="124.00" routeLength="1015.10" waitSteps="21" timeLoss="47.54" rerouteNo="0" devices="tripinfo_right_42" vType="typeWE" speedFactor="1.00" vaporized=""/>
    <tripinfo id="right_43" depart="182.00" departLane="51o_0" departPos="5.10" departSpeed="0.00" departDelay="1.00" arrival="302.00" arrivalLane="52i_0" arrivalPos="10.00" arrivalSpeed="10.85" duration="120.00" routeLength="1015.10" waitSteps="17" timeLoss="44.01" rerouteNo="0" devices="tripinfo_right_43" vType="typeWE" speedFactor="1.00" vaporized=""/>
    <tripinfo id="left_35" depart="164.00" departLane="52o_0" departPos="5.10" departSpeed="0.00" departDelay="4.00" arrival="303.00" arrivalLane="51i_0" arrivalPos="10.00" arrivalSpeed="11.81" duration="139.00" routeLength="1015.10" waitSteps="29" timeLoss="62.55" rerouteNo="0" devices="tripinfo_left_35" vType="typeWE" speedFactor="1.00" vaporized=""/>
    <tripinfo id="right_44" depart="187.00" departLane="51o_0" departPos="5.10" departSpeed="0.00" departDelay="4.00" arrival="304.00" arrivalLane="52i_0" arrivalPos="10.00" arrivalSpeed="11.61" duration="117.00" routeLength="1015.10" waitSteps="12" timeLoss="41.12" rerouteNo="0" devices="tripinfo_right_44" vType="typeWE" speedFactor="1.00" vaporized=""/>
    <tripinfo id="left_36" depart="169.00" departLane="52o_0" departPos="5.10" departSpeed="0.00" departDelay="5.00" arrival="305.00" arrivalLane="51i_0" arrivalPos="10.00" arrivalSpeed="11.50" duration="136.00" routeLength="1015.10" waitSteps="25" timeLoss="59.45" rerouteNo="0" devices="tripinfo_left_36" vType="typeWE" speedFactor="1.00" vaporized=""/>
    <tripinfo id="left_39" depart="174.00" departLane="52o_0" departPos="5.10" departSpeed="0.00" departDelay="5.00" arrival="306.00" arrivalLane="51i_0" arrivalPos="10.00" arrivalSpeed="11.44" duration="132.00" routeLength="1015.10" waitSteps="21" timeLoss="56.15" rerouteNo="0" devices="tripinfo_left_39" vType="typeWE" speedFactor="1.00" vaporized=""/>
    <tripinfo id="right_48" depart="200.00" departLane="51o_0" departPos="5.10" departSpeed="0.00" departDelay="0.00" arrival="306.00" arrivalLane="52i_0" arrivalPos="10.00" arrivalSpeed="11.72" duration="106.00" routeLength="1015.10" waitSteps="0" timeLoss="30.22" rerouteNo="0" devices="tripinfo_right_48" vType="typeWE" speedFactor="1.00" vaporized=""/>
    <tripinfo id="left_40" depart="179.00" departLane="52o_0" departPos="5.10" departSpeed="0.00" departDelay="7.00" arrival="308.00" arrivalLane="51i_0" arrivalPos="10.00" arrivalSpeed="11.04" duration="129.00" routeLength="1015.10" waitSteps="21" timeLoss="52.91" rerouteNo="0" devices="tripinfo_left_40" vType="typeWE" speedFactor="1.00" vaporized=""/>
    <tripinfo id="right_50" depart="217.00" departLane="51o_0" departPos="5.10" departSpeed="0.00" departDelay="0.00" arrival="309.00" arrivalLane="52i_0" arrivalPos="10.00" arrivalSpeed="11.26" duration="92.00" routeLength="1015.10" waitSteps="0" timeLoss="15.78" rerouteNo="0" devices="tripinfo_right_50" vType="typeWE" speedFactor="1.00" vaporized=""/>
    <tripinfo id="left_45" depart="194.00" departLane="52o_0" departPos="5.10" departSpeed="0.00" departDelay="0.00" arrival="310.00" arrivalLane="51i_0" arrivalPos="10.00" arrivalSpeed="10.91" duration="116.00" routeLength="1015.10" waitSteps="10" timeLoss="40.04" rerouteNo="0" devices="tripinfo_left_45" vType="typeWE" speedFactor="1.00" vaporized=""/>
    <tripinfo id="left_46" depart="199.00" departLane="52o_0" departPos="5.10" departSpeed="0.00" departDelay="3.00" arrival="312.00" arrivalLane="51i_0" arrivalPos="10.00" arrivalSpeed="11.60" duration="113.00" routeLength="1015.10" waitSteps="7" timeLoss="37.11" rerouteNo="0" devices="tripinfo_left_46" vType="typeWE" speedFactor="1.00" vaporized=""/>
    <tripinfo id="down_55" depart="238.00" departLane="54o_0" departPos="7.10" departSpeed="0.00" departDelay="0.00" arrival="327.00" arrivalLane="53i_0" arrivalPos="10.00" arrivalSpeed="11.50" duration="89.00" routeLength="1013.10" waitSteps="0" timeLoss="17.41" rerouteNo="0" devices="tripinfo_down_55" vType="typeNS" speedFactor="1.00" vaporized=""/>
    <tripinfo id="down_57" depart="244.00" departLane="54o_0" departPos="7.10" departSpeed="0.00" departDelay="2.00" arrival="333.00" arrivalLane="53i_0" arrivalPos="10.00" arrivalSpeed="11.37" duration="89.00" routeLength="1013.10" waitSteps="0" timeLoss="17.39" rerouteNo="0" devices="tripinfo_down_57" vType="typeNS" speedFactor="1.00" vaporized=""/>
    <tripinfo id="right_52" depart="228.00" departLane="51o_0" departPos="5.10" departSpeed="0.00" departDelay="0.00" arrival="350.00" arrivalLane="52i_0" arrivalPos="10.00" arrivalSpeed="11.46" duration="122.00" routeLength="1015.10" waitSteps="21" timeLoss="45.96" rerouteNo="0" devices="tripinfo_right_52" vType="typeWE" speedFactor="1.00" vaporized=""/>
    <tripinfo id="left_47" depart="204.00" departLane="52o_0" departPos="5.10" departSpeed="0.00" departDelay="5.00" arrival="352.00" arrivalLane="51i_0" arrivalPos="10.00" arrivalSpeed="11.45" duration="148.00" routeLength="1015.10" waitSteps="31" timeLoss="71.38" rerouteNo="0" devices="tripinfo_left_47" vType="typeWE" speedFactor="1.00" vaporized=""/>
    <tripinfo id="right_56" depart="240.00" departLane="51o_0" departPos="5.10" departSpeed="0.00" departDelay="0.00" arrival="374.00" arrivalLane="52i_0" arrivalPos="10.00" arrivalSpeed="11.56" duration="134.00" routeLength="1015.10" waitSteps="28" timeLoss="57.82" rerouteNo="0" devices="tripinfo_right_56" vType="typeWE" speedFactor="1.00" vaporized=""/>
    <tripinfo id="left_49" depart="212.00" departLane="52o_0" departPos="5.10" departSpeed="0.00" departDelay="0.00" arrival="375.00" arrivalLane="51i_0" arrivalPos="10.00" arrivalSpeed="11.70" duration="163.00" routeLength="1015.10" waitSteps="44" timeLoss="86.45" rerouteNo="0" devices="tripinfo_left_49" vType="typeWE" speedFactor="1.00" vaporized=""/>
    <tripinfo id="right_61" depart="284.00" departLane="51o_0" departPos="5.10" departSpeed="0.00" departDelay="0.00" arrival="376.00" arrivalLane="52i_0" arrivalPos="10.00" arrivalSpeed="11.50" duration="92.00" routeLength="1015.10" waitSteps="0" timeLoss="15.87" rerouteNo="0" devices="tripinfo_right_61" vType="typeWE" speedFactor="1.00" vaporized=""/>
    <tripinfo id="left_51" depart="219.00" departLane="52o_0" departPos="5.10" departSpeed="0.00" departDelay="0.00" arrival="377.00" arrivalLane="51i_0" arrivalPos="10.00" arrivalSpeed="11.34" duration="158.00" routeLength="1015.10" waitSteps="43" timeLoss="81.48" rerouteNo="0" devices="tripinfo_left_51" vType="typeWE" speedFactor="1.00" vaporized=""/>
    <tripinfo id="left_53" depart="234.00" departLane="52o_0" departPos="5.10" departSpeed="0.00" departDelay="0.00" arrival="380.00" arrivalLane="51i_0" arrivalPos="10.00" arrivalSpeed="11.41" duration="146.00" routeLength="1015.10" waitSteps="34" timeLoss="69.37" rerouteNo="0" devices="tripinfo_left_53" vType="typeWE" speedFactor="1.00" vaporized=""/>
    <tripinfo id="left_54" depart="239.00" departLane="52o_0" departPos="5.10" departSpeed="0.00" departDelay="1.00" arrival="381.00" arrivalLane="51i_0" arrivalPos="10.00" arrivalSpeed="11.66" duration="142.00" routeLength="1015.10" waitSteps="31" timeLoss="66.15" rerouteNo="0" devices="tripinfo_left_54" vType="typeWE" speedFactor="1.00" vaporized=""/>
    <tripinfo id="right_62" depart="289.00" departLane="51o_0" departPos="5.10" departSpeed="0.00" departDelay="3.00" arrival="381.00" arrivalLane="52i_0" arrivalPos="10.00" arrivalSpeed="11.47" duration="92.00" routeLength="1015.10" waitSteps="1" timeLoss="15.87" rerouteNo="0" devices="tripinfo_right_62" vType="typeWE" speedFactor="1.00" vaporized=""/>
    <tripinfo id="left_58" depart="272.00" departLane="52o_0" departPos="5.10" departSpeed="0.00" departDelay="0.00" arrival="383.00" arrivalLane="51i_0" arrivalPos="10.00" arrivalSpeed="11.82" duration="111.00" routeLength="1015.10" waitSteps="7" timeLoss="34.82" rerouteNo="0" devices="tripinfo_left_58" vType="typeWE" speedFactor="1.00" vaporized=""/>
    <tripinfo id="left_59" depart="277.00" departLane="52o_0" departPos="5.10" departSpeed="0.00" departDelay="2.00" arrival="385.00" arrivalLane="51i_0" arrivalPos="10.00" arrivalSpeed="11.42" duration="108.00" routeLength="1015.10" waitSteps="3" timeLoss="31.58" rerouteNo="0" devices="tripinfo_left_59" vType="typeWE" speedFactor="1.00" vaporized=""/>
    <tripinfo id="down_60" depart="283.00" departLane="54o_0" departPos="7.10" departSpeed="0.00" departDelay="0.00" arrival="398.00" arrivalLane="53i_0" arrivalPos="10.00" arrivalSpeed="11.09" duration="115.00" routeLength="1013.10" waitSteps="14" timeLoss="43.51" rerouteNo="0" devices="tripinfo_down_60" vType="typeNS" speedFactor="1.00" vaporized=""/>
    <tripinfo id="down_66" depart="302.00" departLane="54o_0" departPos="7.10" departSpeed="0.00" departDelay="0.00" arrival="401.00" arrivalLane="53i_0" arrivalPos="10.00" arrivalSpeed="11.68" duration="99.00" routeLength="1013.10" waitSteps="0" timeLoss="26.90" rerouteNo="0" devices="tripinfo_down_66" vType="typeNS" speedFactor="1.00" vaporized=""/>
    <tripinfo id="down_67" depart="318.00" departLane="54o_0" departPos="7.10" departSpeed="0.00" departDelay="0.00" arrival="407.00" arrivalLane="53i_0" arrivalPos="10.00" arrivalSpeed="11.56" duration="89.00" routeLength="1013.10" waitSteps="0" timeLoss="16.95" rerouteNo="0" devices="tripinfo_down_67" vType="typeNS" speedFactor="1.00" vaporized=""/>
    <tripinfo id="right_63" depart="296.00" departLane="51o_0" departPos="5.10" departSpeed="0.00" departDelay="8.00" arrival="429.00" arrivalLane="52i_0" arrivalPos="10.00" arrivalSpeed="11.33" duration="133.00" routeLength="1015.10" waitSteps="30" timeLoss="56.53" rerouteNo="0" devices="tripinfo_right_63" vType="typeWE" speedFactor="1.00" vaporized=""/>
    <tripinfo id="down_69" depart="331.00" departLane="54o_0" departPos="7.10" departSpeed="0.00" departDelay="0.00" arrival="441.00" arrivalLane="53i_0" arrivalPos="10.00" arrivalSpeed="11.70" duration="110.00" routeLength="1013.10" waitSteps="9" timeLoss="38.40" rerouteNo="0" devices="tripinfo_down_69" vType="typeNS" speedFactor="1.00" vaporized=""/>
    <tripinfo id="down_70" depart="337.00" departLane="54o_0" departPos="7.10" departSpeed="0.00" departDelay="0.00" arrival="443.00" arrivalLane="53i_0" arrivalPos="10.00" arrivalSpeed="11.74" duration="106.00" routeLength="1013.10" waitSteps="5" timeLoss="34.78" rerouteNo="0" devices="tripinfo_down_70" vType="typeNS" speedFactor="1.00" vaporized=""/>
    <tripinfo id="down_74" depart="344.00" departLane="54o_0" departPos="7.10" departSpeed="0.00" departDelay="0.00" arrival="445.00" arrivalLane="53i_0" arrivalPos="10.00" arrivalSpeed="11.11" duration="101.00" routeLength="1013.10" waitSteps="0" timeLoss="29.53" rerouteNo="0" devices="tripinfo_down_74" vType="typeNS" speedFactor="1.00" vaporized=""/>
    <tripinfo id="down_76" depart="350.00" departLane="54o_0" departPos="7.10" departSpeed="0.00" departDelay="1.00" arrival="447.00" arrivalLane="53i_0" arrivalPos="10.00" arrivalSpeed="11.05" duration="97.00" routeLength="1013.10" waitSteps="0" timeLoss="25.41" rerouteNo="0" devices="tripinfo_down_76" vType="typeNS" speedFactor="1.00" vaporized=""/>
    <tripinfo id="left_71" depart="339.00" departLane="52o_0" departPos="5.10" departSpeed="0.00" departDelay="0.00" arrival="464.00" arrivalLane="51i_0" arrivalPos="10.00" arrivalSpeed="10.77" duration="125.00" routeLength="1015.10" waitSteps="22" timeLoss="49.06" rerouteNo="0" devices="tripinfo_left_71" vType="typeWE" speedFactor="1.00" vaporized=""/>
    <tripinfo id="right_64" depart="306.00" departLane="51o_0" departPos="5.10" departSpeed="0.00" departDelay="15.00" arrival="464.00" arrivalLane="52i_0" arrivalPos="10.00" arrivalSpeed="11.31" duration="158.00" routeLength="1015.10" waitSteps="52" timeLoss="81.45" rerouteNo="0" devices="tripinfo_right_64" vType="typeWE" speedFactor="1.00" vaporized=""/>
    <tripinfo id="down_79" depart="377.00" departLane="54o_0" departPos="7.10" departSpeed="0.00" departDelay="0.00" arrival="476.00" arrivalLane="53i_0" arrivalPos="10.00" arrivalSpeed="11.57" duration="99.00" routeLength="1013.10" waitSteps="1" timeLoss="27.86" rerouteNo="0" devices="tripinfo_down_79" vType="typeNS" speedFactor="1.00" vaporized=""/>
    <tripinfo id="right_65" depart="312.00" departLane="51o_0" departPos="5.10" departSpeed="0.00" departDelay="18.00" arrival="488.00" arrivalLane="52i_0" arrivalPos="10.00" arrivalSpeed="11.68" duration="176.00" routeLength="1015.10" waitSteps="63" timeLoss="99.61" rerouteNo="0" devices="tripinfo_right_65" vType="typeWE" speedFactor="1.00" vaporized=""/>
    <tripinfo id="left_73" depart="344.00" departLane="52o_0" departPos="5.10" departSpeed="0.00" departDelay="0.00" arrival="488.00" arrivalLane="51i_0" arrivalPos="10.00" arrivalSpeed="11.58" duration="144.00" routeLength="1015.10" waitSteps="38" timeLoss="68.25" rerouteNo="0" devices="tripinfo_left_73" vType="typeWE" speedFactor="1.00" vaporized=""/>
    <tripinfo id="left_75" depart="350.00" departLane="52o_0" departPos="5.10" departSpeed="0.00" departDelay="4.00" arrival="490.00" arrivalLane="51i_0" arrivalPos="10.00" arrivalSpeed="11.69" duration="140.00" routeLength="1015.10" waitSteps="32" timeLoss="64.18" rerouteNo="0" devices="tripinfo_left_75" vType="typeWE" speedFactor="1.00" vaporized=""/>
    <tripinfo id="down_80" depart="382.00" departLane="54o_0" departPos="7.10" departSpeed="0.00" departDelay="3.00" arrival="501.00" arrivalLane="53i_0" arrivalPos="10.00" arrivalSpeed="11.53" duration="119.00" routeLength="1013.10" waitSteps="18" timeLoss="47.17" rerouteNo="0" devices="tripinfo_down_80" vType="typeNS" speedFactor="1.00" vaporized=""/>
    <tripinfo id="right_68" depart="322.00" departLane="51o_0" departPos="5.10" departSpeed="0.00" departDelay="0.00" arrival="512.00" arrivalLane="52i_0" arrivalPos="10.00" arrivalSpeed="10.83" duration="190.00" routeLength="1015.10" waitSteps="69" timeLoss="114.04" rerouteNo="0" devices="tripinfo_right_68" vType="typeWE" speedFactor="1.00" vaporized=""/>
    <tripinfo id="left_82" depart="388.00" departLane="52o_0" departPos="5.10" departSpeed="0.00" departDelay="0.00" arrival="512.00" arrivalLane="51i_0" arrivalPos="10.00" arrivalSpeed="11.51" duration="124.00" routeLength="1015.10" waitSteps="15" timeLoss="47.94" rerouteNo="0" devices="tripinfo_left_82" vType="typeWE" speedFactor="1.00" vaporized=""/>
    <tripinfo id="right_72" depart="342.00" departLane="51o_0" departPos="5.10" departSpeed="0.00" departDelay="0.00" arrival="514.00" arrivalLane="52i_0" arrivalPos="10.00" arrivalSpeed="11.47" duration="172.00" routeLength="1015.10" waitSteps="54" timeLoss="96.24" rerouteNo="0" devices="tripinfo_right_72" vType="typeWE" speedFactor="1.00" vaporized=""/>
    <tripinfo id="left_83" depart="393.00" departLane="52o_0" departPos="5.10" departSpeed="0.00" departDelay="4.00" arrival="514.00" arrivalLane="51i_0" arrivalPos="10.00" arrivalSpeed="11.45" duration="121.00" routeLength="1015.10" waitSteps="14" timeLoss="45.27" rerouteNo="0" devices="tripinfo_left_83" vType="typeWE" speedFactor="1.00" vaporized=""/>