<?xml version="1.0" encoding="UTF-8"?>

<!-- generated on Sun Mar  4 16:11:09 2018 by SUMO Version 0.32.0
<?xml version="1.0" encoding="UTF-8"?>

<configuration xmlns:xsi="http://www.w3.org/2001/XMLSchema-instance" xsi:noNamespaceSchemaLocation="http://sumo.dlr.de/xsd/sumoConfiguration.xsd">

    <input>
        <net-file value="data/cross.net.xml"/>
        <route-files value="data/cross.rou.xml"/>
        <additional-files value="data/cross.det.xml,data/cross.det2.xml"/>
    </input>

    <output>
        <tripinfo-output value="qlepisode0_tripinfo.xml"/>
    </output>

    <time>
        <begin value="0"/>
    </time>

    <report>
        <verbose value="true"/>
        <error-log value="errors"/>
        <no-step-log value="true"/>
    </report>

    <traci_server>
        <remote-port value="60591"/>
    </traci_server>

</configuration>
-->

<tripinfos xmlns:xsi="http://www.w3.org/2001/XMLSchema-instance" xsi:noNamespaceSchemaLocation="http://sumo.dlr.de/xsd/tripinfo_file.xsd">
    <tripinfo id="down_6" depart="13.00" departLane="54o_0" departPos="7.10" departSpeed="0.00" departDelay="0.00" arrival="103.00" arrivalLane="53i_0" arrivalPos="10.00" arrivalSpeed="11.62" duration="90.00" routeLength="1013.10" waitSteps="0" timeLoss="18.30" rerouteNo="0" devices="tripinfo_down_6" vType="typeNS" speedFactor="1.00" vaporized=""/>
    <tripinfo id="down_8" depart="29.00" departLane="54o_0" departPos="7.10" departSpeed="0.00" departDelay="0.00" arrival="119.00" arrivalLane="53i_0" arrivalPos="10.00" arrivalSpeed="11.40" duration="90.00" routeLength="1013.10" waitSteps="0" timeLoss="18.43" rerouteNo="0" devices="tripinfo_down_8" vType="typeNS" speedFactor="1.00" vaporized=""/>
    <tripinfo id="right_2" depart="3.00" departLane="51o_0" departPos="5.10" departSpeed="0.00" departDelay="0.00" arrival="188.00" arrivalLane="52i_0" arrivalPos="10.00" arrivalSpeed="11.51" duration="185.00" routeLength="1015.10" waitSteps="83" timeLoss="108.67" rerouteNo="0" devices="tripinfo_right_2" vType="typeWE" speedFactor="1.00" vaporized=""/>
    <tripinfo id="left_0" depart="0.00" departLane="52o_0" departPos="5.10" departSpeed="0.00" departDelay="0.00" arrival="189.00" arrivalLane="51i_0" arrivalPos="10.00" arrivalSpeed="11.83" duration="189.00" routeLength="1015.10" waitSteps="86" timeLoss="112.50" rerouteNo="0" devices="tripinfo_left_0" vType="typeWE" speedFactor="1.00" vaporized=""/>
    <tripinfo id="right_3" depart="8.00" departLane="51o_0" departPos="5.10" departSpeed="0.00" departDelay="4.00" arrival="190.00" arrivalLane="52i_0" arrivalPos="10.00" arrivalSpeed="10.95" duration="182.00" routeLength="1015.10" waitSteps="79" timeLoss="105.98" rerouteNo="0" devices="tripinfo_right_3" vType="typeWE" speedFactor="1.00" vaporized=""/>
    <tripinfo id="left_1" depart="5.00" departLane="52o_0" departPos="5.10" departSpeed="0.00" departDelay="3.00" arrival="191.00" arrivalLane="51i_0" arrivalPos="10.00" arrivalSpeed="11.55" duration="186.00" routeLength="1015.10" waitSteps="82" timeLoss="109.42" rerouteNo="0" devices="tripinfo_left_1" vType="typeWE" speedFactor="1.00" vaporized=""/>
    <tripinfo id="left_4" depart="10.00" departLane="52o_0" departPos="5.10" departSpeed="0.00" departDelay="4.00" arrival="192.00" arrivalLane="51i_0" arrivalPos="10.00" arrivalSpeed="10.73" duration="182.00" routeLength="1015.10" waitSteps="80" timeLoss="106.03" rerouteNo="0" devices="tripinfo_left_4" vType="typeWE" speedFactor="1.00" vaporized=""/>
    <tripinfo id="right_5" depart="13.00" departLane="51o_0" departPos="5.10" departSpeed="0.00" departDelay="4.00" arrival="193.00" arrivalLane="52i_0" arrivalPos="10.00" arrivalSpeed="11.54" duration="180.00" routeLength="1015.10" waitSteps="76" timeLoss="103.63" rerouteNo="0" devices="tripinfo_right_5" vType="typeWE" speedFactor="1.00" vaporized=""/>
    <tripinfo id="down_20" depart="89.00" departLane="54o_0" departPos="7.10" departSpeed="0.00" departDelay="0.00" arrival="207.00" arrivalLane="53i_0" arrivalPos="10.00" arrivalSpeed="11.44" duration="118.00" routeLength="1013.10" waitSteps="18" timeLoss="46.51" rerouteNo="0" devices="tripinfo_down_20" vType="typeNS" speedFactor="1.00" vaporized=""/>
    <tripinfo id="down_21" depart="96.00" departLane="54o_0" departPos="7.10" departSpeed="0.00" departDelay="0.00" arrival="210.00" arrivalLane="53i_0" arrivalPos="10.00" arrivalSpeed="11.70" duration="114.00" routeLength="1013.10" waitSteps="12" timeLoss="42.20" rerouteNo="0" devices="tripinfo_down_21" vType="typeNS" speedFactor="1.00" vaporized=""/>
    <tripinfo id="right_12" depart="42.00" departLane="51o_0" departPos="5.10" departSpeed="0.00" departDelay="0.00" arrival="224.00" arrivalLane="52i_0" arrivalPos="10.00" arrivalSpeed="11.56" duration="182.00" routeLength="1015.10" waitSteps="67" timeLoss="106.14" rerouteNo="0" devices="tripinfo_right_12" vType="typeWE" speedFactor="1.00" vaporized=""/>
    <tripinfo id="left_7" depart="22.00" departLane="52o_0" departPos="5.10" departSpeed="0.00" departDelay="0.00" arrival="225.00" arrivalLane="51i_0" arrivalPos="10.00" arrivalSpeed="11.20" duration="203.00" routeLength="1015.10" waitSteps="91" timeLoss="126.47" rerouteNo="0" devices="tripinfo_left_7" vType="typeWE" speedFactor="1.00" vaporized=""/>
    <tripinfo id="left_9" depart="31.00" departLane="52o_0" departPos="5.10" departSpeed="0.00" departDelay="0.00" arrival="227.00" arrivalLane="51i_0" arrivalPos="10.00" arrivalSpeed="11.49" duration="196.00" routeLength="1015.10" waitSteps="84" timeLoss="119.44" rerouteNo="0" devices="tripinfo_left_9" vType="typeWE" speedFactor="1.00" vaporized=""/>
    <tripinfo id="right_15" depart="55.00" departLane="51o_0" departPos="5.10" departSpeed="0.00" departDelay="0.00" arrival="227.00" arrivalLane="52i_0" arrivalPos="10.00" arrivalSpeed="11.82" duration="172.00" routeLength="1015.10" waitSteps="56" timeLoss="95.72" rerouteNo="0" devices="tripinfo_right_15" vType="typeWE" speedFactor="1.00" vaporized=""/>
    <tripinfo id="left_10" depart="36.00" departLane="52o_0" departPos="5.10" departSpeed="0.00" departDelay="3.00" arrival="229.00" arrivalLane="51i_0" arrivalPos="10.00" arrivalSpeed="11.78" duration="193.00" routeLength="1015.10" waitSteps="80" timeLoss="116.56" rerouteNo="0" devices="tripinfo_left_10" vType="typeWE" speedFactor="1.00" vaporized=""/>
    <tripinfo id="right_16" depart="61.00" departLane="51o_0" departPos="5.10" departSpeed="0.00" departDelay="0.00" arrival="229.00" arrivalLane="52i_0" arrivalPos="10.00" arrivalSpeed="11.19" duration="168.00" routeLength="1015.10" waitSteps="53" timeLoss="91.60" rerouteNo="0" devices="tripinfo_right_16" vType="typeWE" speedFactor="1.00" vaporized=""/>
    <tripinfo id="down_26" depart="122.00" departLane="54o_0" departPos="7.10" departSpeed="0.00" departDelay="0.00" arrival="243.00" arrivalLane="53i_0" arrivalPos="10.00" arrivalSpeed="11.40" duration="121.00" routeLength="1013.10" waitSteps="20" timeLoss="49.44" rerouteNo="0" devices="tripinfo_down_26" vType="typeNS" speedFactor="1.00" vaporized=""/>
    <tripinfo id="down_41" depart="172.00" departLane="54o_0" departPos="7.10" departSpeed="0.00" departDelay="0.00" arrival="261.00" arrivalLane="53i_0" arrivalPos="10.00" arrivalSpeed="11.63" duration="89.00" routeLength="1013.10" waitSteps="0" timeLoss="17.31" rerouteNo="0" devices="tripinfo_down_41" vType="typeNS" speedFactor="1.00" vaporized=""/>
    <tripinfo id="left_11" depart="41.00" departLane="52o_0" departPos="5.10" departSpeed="0.00" departDelay="0.00" arrival="332.00" arrivalLane="51i_0" arrivalPos="10.00" arrivalSpeed="11.32" duration="291.00" routeLength="1015.10" waitSteps="169" timeLoss="215.17" rerouteNo="0" devices="tripinfo_left_11" vType="typeWE" speedFactor="1.00" vaporized=""/>
    <tripinfo id="right_17" depart="69.00" departLane="51o_0" departPos="5.10" departSpeed="0.00" departDelay="0.00" arrival="333.00" arrivalLane="52i_0" arrivalPos="10.00" arrivalSpeed="11.33" duration="264.00" routeLength="1015.10" waitSteps="139" timeLoss="187.51" rerouteNo="0" devices="tripinfo_right_17" vType="typeWE" speedFactor="1.00" vaporized=""/>
    <tripinfo id="left_13" depart="46.00" departLane="52o_0" departPos="5.10" departSpeed="0.00" departDelay="1.00" arrival="334.00" arrivalLane="51i_0" arrivalPos="10.00" arrivalSpeed="11.64" duration="288.00" routeLength="1015.10" waitSteps="165" timeLoss="212.19" rerouteNo="0" devices="tripinfo_left_13" vType="typeWE" speedFactor="1.00" vaporized=""/>
    <tripinfo id="left_14" depart="53.00" departLane="52o_0" departPos="5.10" departSpeed="0.00" departDelay="0.00" arrival="336.00" arrivalLane="51i_0" arrivalPos="10.00" arrivalSpeed="11.47" duration="283.00" routeLength="1015.10" waitSteps="157" timeLoss="207.19" rerouteNo="0" devices="tripinfo_left_14" vType="typeWE" speedFactor="1.00" vaporized=""/>
    <tripinfo id="right_18" depart="84.00" departLane="51o_0" departPos="5.10" departSpeed="0.00" departDelay="0.00" arrival="336.00" arrivalLane="52i_0" arrivalPos="10.00" arrivalSpeed="11.45" duration="252.00" routeLength="1015.10" waitSteps="125" timeLoss="175.48" rerouteNo="0" devices="tripinfo_right_18" vType="typeWE" speedFactor="1.00" vaporized=""/>
    <tripinfo id="right_22" depart="99.00" departLane="51o_0" departPos="5.10" departSpeed="0.00" departDelay="0.00" arrival="337.00" arrivalLane="52i_0" arrivalPos="10.00" arrivalSpeed="11.30" duration="238.00" routeLength="1015.10" waitSteps="112" timeLoss="162.16" rerouteNo="0" devices="tripinfo_right_22" vType="typeWE" speedFactor="1.00" vaporized=""/>
    <tripinfo id="down_55" depart="238.00" departLane="54o_0" departPos="7.10" departSpeed="0.00" departDelay="0.00" arrival="350.00" arrivalLane="53i_0" arrivalPos="10.00" arrivalSpeed="11.83" duration="112.00" routeLength="1013.10" waitSteps="12" timeLoss="40.53" rerouteNo="0" devices="tripinfo_down_55" vType="typeNS" speedFactor="1.00" vaporized=""/>
    <tripinfo id="down_57" depart="244.00" departLane="54o_0" departPos="7.10" departSpeed="0.00" departDelay="2.00" arrival="352.00" arrivalLane="53i_0" arrivalPos="10.00" arrivalSpeed="11.35" duration="108.00" routeLength="1013.10" waitSteps="8" timeLoss="36.65" rerouteNo="0" devices="tripinfo_down_57" vType="typeNS" speedFactor="1.00" vaporized=""/>
    <tripinfo id="left_19" depart="85.00" departLane="52o_0" departPos="5.10" departSpeed="0.00" departDelay="0.00" arrival="369.00" arrivalLane="51i_0" arrivalPos="10.00" arrivalSpeed="11.53" duration="284.00" routeLength="1015.10" waitSteps="152" timeLoss="207.37" rerouteNo="0" devices="tripinfo_left_19" vType="typeWE" speedFactor="1.00" vaporized=""/>
    <tripinfo id="right_24" depart="108.00" departLane="51o_0" departPos="5.10" departSpeed="0.00" departDelay="0.00" arrival="369.00" arrivalLane="52i_0" arrivalPos="10.00" arrivalSpeed="11.46" duration="261.00" routeLength="1015.10" waitSteps="134" timeLoss="184.84" rerouteNo="0" devices="tripinfo_right_24" vType="typeWE" speedFactor="1.00" vaporized=""/>
    <tripinfo id="left_23" depart="99.00" departLane="52o_0" departPos="5.10" departSpeed="0.00" departDelay="0.00" arrival="371.00" arrivalLane="51i_0" arrivalPos="10.00" arrivalSpeed="11.78" duration="272.00" routeLength="1015.10" waitSteps="137" timeLoss="195.52" rerouteNo="0" devices="tripinfo_left_23" vType="typeWE" speedFactor="1.00" vaporized=""/>
    <tripinfo id="right_25" depart="114.00" departLane="51o_0" departPos="5.10" departSpeed="0.00" departDelay="0.00" arrival="372.00" arrivalLane="52i_0" arrivalPos="10.00" arrivalSpeed="11.31" duration="258.00" routeLength="1015.10" waitSteps="132" timeLoss="181.38" rerouteNo="0" devices="tripinfo_right_25" vType="typeWE" speedFactor="1.00" vaporized=""/>
    <tripinfo id="left_28" depart="131.00" departLane="52o_0" departPos="5.10" departSpeed="0.00" departDelay="0.00" arrival="373.00" arrivalLane="51i_0" arrivalPos="10.00" arrivalSpeed="11.50" duration="242.00" routeLength="1015.10" waitSteps="115" timeLoss="165.87" rerouteNo="0" devices="tripinfo_left_28" vType="typeWE" speedFactor="1.00" vaporized=""/>
    <tripinfo id="right_27" depart="125.00" departLane="51o_0" departPos="5.10" departSpeed="0.00" departDelay="0.00" arrival="373.00" arrivalLane="52i_0" arrivalPos="10.00" arrivalSpeed="11.47" duration="248.00" routeLength="1015.10" waitSteps="124" timeLoss="172.09" rerouteNo="0" devices="tripinfo_right_27" vType="typeWE" speedFactor="1.00" vaporized=""/>
    <tripinfo id="left_29" depart="136.00" departLane="52o_0" departPos="5.10" departSpeed="0.00" departDelay="1.00" arrival="375.00" arrivalLane="51i_0" arrivalPos="10.00" arrivalSpeed="11.52" duration="239.00" routeLength="1015.10" waitSteps="113" timeLoss="163.14" rerouteNo="0" devices="tripinfo_left_29" vType="typeWE" speedFactor="1.00" vaporized=""/>
    <tripinfo id="right_32" depart="145.00" departLane="51o_0" departPos="5.10" departSpeed="0.00" departDelay="0.00" arrival="375.00" arrivalLane="52i_0" arrivalPos="10.00" arrivalSpeed="11.62" duration="230.00" routeLength="1015.10" waitSteps="112" timeLoss="153.93" rerouteNo="0" devices="tripinfo_right_32" vType="typeWE" speedFactor="1.00" vaporized=""/>
    <tripinfo id="left_30" depart="141.00" departLane="52o_0" departPos="5.10" departSpeed="0.00" departDelay="3.00" arrival="377.00" arrivalLane="51i_0" arrivalPos="10.00" arrivalSpeed="11.64" duration="236.00" routeLength="1015.10" waitSteps="110" timeLoss="159.96" rerouteNo="0" devices="tripinfo_left_30" vType="typeWE" speedFactor="1.00" vaporized=""/>
    <tripinfo id="right_37" depart="167.00" departLane="51o_0" departPos="5.10" departSpeed="0.00" departDelay="0.00" arrival="377.00" arrivalLane="52i_0" arrivalPos="10.00" arrivalSpeed="11.32" duration="210.00" routeLength="1015.10" waitSteps="95" timeLoss="133.76" rerouteNo="0" devices="tripinfo_right_37" vType="typeWE" speedFactor="1.00" vaporized=""/>
    <tripinfo id="left_31" depart="146.00" departLane="52o_0" departPos="5.10" departSpeed="0.00" departDelay="4.00" arrival="379.00" arrivalLane="51i_0" arrivalPos="10.00" arrivalSpeed="11.56" duration="233.00" routeLength="1015.10" waitSteps="110" timeLoss="156.83" rerouteNo="0" devices="tripinfo_left_31" vType="typeWE" speedFactor="1.00" vaporized=""/>
    <tripinfo id="right_38" depart="172.00" departLane="51o_0" departPos="5.10" departSpeed="0.00" departDelay="4.00" arrival="379.00" arrivalLane="52i_0" arrivalPos="10.00" arrivalSpeed="11.47" duration="207.00" routeLength="1015.10" waitSteps="92" timeLoss="130.47" rerouteNo="0" devices="tripinfo_right_38" vType="typeWE" speedFactor="1.00" vaporized=""/>
    <tripinfo id="left_33" depart="153.00" departLane="52o_0" departPos="5.10" departSpeed="0.00" departDelay="0.00" arrival="381.00" arrivalLane="51i_0" arrivalPos="10.00" arrivalSpeed="11.26" duration="228.00" routeLength="1015.10" waitSteps="110" timeLoss="151.57" rerouteNo="0" devices="tripinfo_left_33" vType="typeWE" speedFactor="1.00" vaporized=""/>
    <tripinfo id="right_42" depart="177.00" departLane="51o_0" departPos="5.10" departSpeed="0.00" departDelay="1.00" arrival="381.00" arrivalLane="52i_0" arrivalPos="10.00" arrivalSpeed="11.59" duration="204.00" routeLength="1015.10" waitSteps="87" timeLoss="128.11" rerouteNo="0" devices="tripinfo_right_42" vType="typeWE" speedFactor="1.00" vaporized=""/>
    <tripinfo id="left_34" depart="158.00" departLane="52o_0" departPos="5.10" departSpeed="0.00" departDelay="2.00" arrival="383.00" arrivalLane="51i_0" arrivalPos="10.00" arrivalSpeed="11.50" duration="225.00" routeLength="1015.10" waitSteps="108" timeLoss="148.49" rerouteNo="0" devices="tripinfo_left_34" vType="typeWE" speedFactor="1.00" vaporized=""/>
    <tripinfo id="right_43" depart="182.00" departLane="51o_0" departPos="5.10" departSpeed="0.00" departDelay="1.00" arrival="383.00" arrivalLane="52i_0" arrivalPos="10.00" arrivalSpeed="11.65" duration="201.00" routeLength="1015.10" waitSteps="84" timeLoss="125.02" rerouteNo="0" devices="tripinfo_right_43" vType="typeWE" speedFactor="1.00" vaporized=""/>
    <tripinfo id="left_35" depart="163.00" departLane="52o_0" departPos="5.10" departSpeed="0.00" departDelay="3.00" arrival="385.00" arrivalLane="51i_0" arrivalPos="10.00" arrivalSpeed="11.34" duration="222.00" routeLength="1015.10" waitSteps="104" timeLoss="145.37" rerouteNo="0" devices="tripinfo_left_35" vType="typeWE" speedFactor="1.00" vaporized=""/>
    <tripinfo id="down_60" depart="283.00" departLane="54o_0" departPos="7.10" departSpeed="0.00" departDelay="0.00" arrival="398.00" arrivalLane="53i_0" arrivalPos="10.00" arrivalSpeed="11.49" duration="115.00" routeLength="1013.10" waitSteps="15" timeLoss="43.70" rerouteNo="0" devices="tripinfo_down_60" vType="typeNS" speedFactor="1.00" vaporized=""/>
    <tripinfo id="down_66" depart="302.00" departLane="54o_0" departPos="7.10" departSpeed="0.00" departDelay="0.00" arrival="401.00" arrivalLane="53i_0" arrivalPos="10.00" arrivalSpeed="11.55" duration="99.00" routeLength="1013.10" waitSteps="0" timeLoss="26.91" rerouteNo="0" devices="tripinfo_down_66" vType="typeNS" speedFactor="1.00" vaporized=""/>
    <tripinfo id="down_67" depart="318.00" departLane="54o_0" departPos="7.10" departSpeed="0.00" departDelay="0.00" arrival="407.00" arrivalLane="53i_0" arrivalPos="10.00" arrivalSpeed="11.35" duration="89.00" routeLength="1013.10" waitSteps="0" timeLoss="17.28" rerouteNo="0" devices="tripinfo_down_67" vType="typeNS" speedFactor="1.00" vaporized=""/>
    <tripinfo id="down_69" depart="331.00" departLane="54o_0" departPos="7.10" departSpeed="0.00" departDelay="0.00" arrival="421.00" arrivalLane="53i_0" arrivalPos="10.00" arrivalSpeed="11.70" duration="90.00" routeLength="1013.10" waitSteps="0" timeLoss="18.53" rerouteNo="0" devices="tripinfo_down_69" vType="typeNS" speedFactor="1.00" vaporized=""/>
    <tripinfo id="down_70" depart="337.00" departLane="54o_0" departPos="7.10" departSpeed="0.00" departDelay="0.00" arrival="427.00" arrivalLane="53i_0" arrivalPos="10.00" arrivalSpeed="11.24" duration="90.00" routeLength="1013.10" waitSteps="0" timeLoss="18.46" rerouteNo="0" devices="tripinfo_down_70" vType="typeNS" speedFactor="1.00" vaporized=""/>
    <tripinfo id="left_36" depart="168.00" departLane="52o_0" departPos="5.10" departSpeed="0.00" departDelay="4.00" arrival="440.00" arrivalLane="51i_0" arrivalPos="10.00" arrivalSpeed="11.66" duration="272.00" routeLength="1015.10" waitSteps="145" timeLoss="196.02" rerouteNo="0" devices="tripinfo_left_36" vType="typeWE" speedFactor="1.00" vaporized=""/>
    <tripinfo id="right_44" depart="192.00" departLane="51o_0" departPos="5.10" departSpeed="0.00" departDelay="9.00" arrival="440.00" arrivalLane="52i_0" arrivalPos="10.00" arrivalSpeed="11.45" duration="248.00" routeLength="1015.10" waitSteps="118" timeLoss="171.78" rerouteNo="0" devices="tripinfo_right_44" vType="typeWE" speedFactor="1.00" vaporized=""/>
    <tripinfo id="left_39" depart="173.00" departLane="52o_0" departPos="5.10" departSpeed="0.00" departDelay="4.00" arrival="442.00" arrivalLane="51i_0" arrivalPos="10.00" arrivalSpeed="11.41" duration="269.00" routeLength="1015.10" waitSteps="142" timeLoss="192.88" rerouteNo="0" devices="tripinfo_left_39" vType="typeWE" speedFactor="1.00" vaporized=""/>
    <tripinfo id="right_48" depart="200.00" departLane="51o_0" departPos="5.10" departSpeed="0.00" departDelay="0.00" arrival="442.00" arrivalLane="52i_0" arrivalPos="10.00" arrivalSpeed="11.82" duration="242.00" routeLength="1015.10" waitSteps="113" timeLoss="166.19" rerouteNo="0" devices="tripinfo_right_48" vType="typeWE" speedFactor="1.00" vaporized=""/>
    <tripinfo id="left_40" depart="178.00" departLane="52o_0" departPos="5.10" departSpeed="0.00" departDelay="6.00" arrival="444.00" arrivalLane="51i_0" arrivalPos="10.00" arrivalSpeed="11.18" duration="266.00" routeLength="1015.10" waitSteps="135" timeLoss="190.16" rerouteNo="0" devices="tripinfo_left_40" vType="typeWE" speedFactor="1.00" vaporized=""/>
    <tripinfo id="right_50" depart="217.00" departLane="51o_0" departPos="5.10" departSpeed="0.00" departDelay="0.00" arrival="444.00" arrivalLane="52i_0" arrivalPos="10.00" arrivalSpeed="11.45" duration="227.00" routeLength="1015.10" waitSteps="98" timeLoss="151.21" rerouteNo="0" devices="tripinfo_right_50" vType="typeWE" speedFactor="1.00" vaporized=""/>
    <tripinfo id="right_52" depart="229.00" departLane="51o_0" departPos="5.10" departSpeed="0.00" departDelay="1.00" arrival="446.00" arrivalLane="52i_0" arrivalPos="10.00" arrivalSpeed="11.64" duration="217.00" routeLength="1015.10" waitSteps="89" timeLoss="141.08" rerouteNo="0" devices="tripinfo_right_52" vType="typeWE" speedFactor="1.00" vaporized=""/>
    <tripinfo id="left_45" depart="194.00" departLane="52o_0" departPos="5.10" departSpeed="0.00" departDelay="0.00" arrival="447.00" arrivalLane="51i_0" arrivalPos="10.00" arrivalSpeed="11.60" duration="253.00" routeLength="1015.10" waitSteps="122" timeLoss="176.29" rerouteNo="0" devices="tripinfo_left_45" vType="typeWE" speedFactor="1.00" vaporized=""/>
    <tripinfo id="left_46" depart="199.00" departLane="52o_0" departPos="5.10" departSpeed="0.00" departDelay="3.00" arrival="448.00" arrivalLane="51i_0" arrivalPos="10.00" arrivalSpeed="11.75" duration="249.00" routeLength="1015.10" waitSteps="117" timeLoss="173.18" rerouteNo="0" devices="tripinfo_left_46" vType="typeWE" speedFactor="1.00" vaporized=""/>
    <tripinfo id="right_56" depart="240.00" departLane="51o_0" departPos="5.10" departSpeed="0.00" departDelay="0.00" arrival="448.00" arrivalLane="52i_0" arrivalPos="10.00" arrivalSpeed="11.53" duration="208.00" routeLength="1015.10" waitSteps="79" timeLoss="132.17" rerouteNo="0" devices="tripinfo_right_56" vType="typeWE" speedFactor="1.00" vaporized=""/>
    <tripinfo id="left_47" depart="204.00" departLane="52o_0" departPos="5.10" departSpeed="0.00" departDelay="5.00" arrival="451.00" arrivalLane="51i_0" arrivalPos="10.00" arrivalSpeed="11.51" duration="247.00" routeLength="1015.10" waitSteps="114" timeLoss="170.68" rerouteNo="0" devices="tripinfo_left_47" vType="typeWE" speedFactor="1.00" vaporized=""/>
    <tripinfo id="right_61" depart="284.00" departLane="51o_0" departPos="5.10" departSpeed="0.00" departDelay="0.00" arrival="451.00" arrivalLane="52i_0" arrivalPos="10.00" arrivalSpeed="11.48" duration="167.00" routeLength="1015.10" waitSteps="47" timeLoss="90.34" rerouteNo="0" devices="tripinfo_right_61" vType="typeWE" speedFactor="1.00" vaporized=""/>
    <tripinfo id="left_49" depart="212.00" departLane="52o_0" departPos="5.10" departSpeed="0.00" departDelay="0.00" arrival="453.00" arrivalLane="51i_0" arrivalPos="10.00" arrivalSpeed="11.59" duration="241.00" routeLength="1015.10" waitSteps="105" timeLoss="164.46" rerouteNo="0" devices="tripinfo_left_49" vType="typeWE" speedFactor="1.00" vaporized=""/>
    <tripinfo id="right_62" depart="289.00" departLane="51o_0" departPos="5.10" departSpeed="0.00" departDelay="3.00" arrival="453.00" arrivalLane="52i_0" arrivalPos="10.00" arrivalSpeed="11.74" duration="164.00" routeLength="1015.10" waitSteps="43" timeLoss="87.70" rerouteNo="0" devices="tripinfo_right_62" vType="typeWE" speedFactor="1.00" vaporized=""/>
    <tripinfo id="left_51" depart="219.00" departLane="52o_0" departPos="5.10" departSpeed="0.00" departDelay="0.00" arrival="454.00" arrivalLane="51i_0" arrivalPos="10.00" arrivalSpeed="10.95" duration="235.00" routeLength="1015.10" waitSteps="99" timeLoss="158.96" rerouteNo="0" devices="tripinfo_left_51" vType="typeWE" speedFactor="1.00" vaporized=""/>
    <tripinfo id="right_63" depart="294.00" departLane="51o_0" departPos="5.10" departSpeed="0.00" departDelay="6.00" arrival="455.00" arrivalLane="52i_0" arrivalPos="10.00" arrivalSpeed="11.34" duration="161.00" routeLength="1015.10" waitSteps="43" timeLoss="84.50" rerouteNo="0" devices="tripinfo_right_63" vType="typeWE" speedFactor="1.00" vaporized=""/>
    <tripinfo id="left_53" depart="234.00" departLane="52o_0" departPos="5.10" departSpeed="0.00" departDelay="0.00" arrival="457.00" arrivalLane="51i_0" arrivalPos="10.00" arrivalSpeed="11.70" duration="223.00" routeLength="1015.10" waitSteps="89" timeLoss="146.32" rerouteNo="0" devices="tripinfo_left_53" vType="typeWE" speedFactor="1.00" vaporized=""/>
    <tripinfo id="right_64" depart="299.00" departLane="51o_0" departPos="5.10" departSpeed="0.00" departDelay="8.00" arrival="457.00" arrivalLane="52i_0" arrivalPos="10.00" arrivalSpeed="11.47" duration="158.00" routeLength="1015.10" waitSteps="43" timeLoss="81.37" rerouteNo="0" devices="tripinfo_right_64" vType="typeWE" speedFactor="1.00" vaporized=""/>
    <tripinfo id="down_74" depart="344.00" departLane="54o_0" departPos="7.10" departSpeed="0.00" departDelay="0.00" arrival="471.00" arrivalLane="53i_0" arrivalPos="10.00" arrivalSpeed="11.29" duration="127.00" routeLength="1013.10" waitSteps="25" timeLoss="55.35" rerouteNo="0" devices="tripinfo_down_74" vType="typeNS" speedFactor="1.00" vaporized=""/>
    <tripinfo id="down_76" depart="351.00" departLane="54o_0" departPos="7.10" departSpeed="0.00" departDelay="2.00" arrival="473.00" arrivalLane="53i_0" arrivalPos="10.00" arrivalSpeed="11.45" duration="122.00" routeLength="1013.10" waitSteps="21" timeLoss="50.55" rerouteNo="0" devices="tripinfo_down_76" vType="typeNS" speedFactor="1.00" vaporized=""/>
    <tripinfo id="down_79" depart="377.00" departLane="54o_0" departPos="7.10" departSpeed="0.00" departDelay="0.00" arrival="475.00" arrivalLane="53i_0" arrivalPos="10.00" arrivalSpeed="11.38" duration="98.00" routeLength="1013.10" waitSteps="0" timeLoss="26.66" rerouteNo="0" devices="tripinfo_down_79" vType="typeNS" speedFactor="1.00" vaporized=""/>
    <tripinfo id="down_80" depart="383.00" departLane="54o_0" departPos="7.10" departSpeed="0.00" departDelay="4.00" arrival="477.00" arrivalLane="53i_0" arrivalPos="10.00" arrivalSpeed="11.55" duration="94.00" routeLength="1013.10" waitSteps="0" timeLoss="22.68" rerouteNo="0" devices="tripinfo_down_80" vType="typeNS" speedFactor="1.00" vaporized=""/>
    <tripinfo id="down_86" depart="394.00" departLane="54o_0" departPos="7.10" departSpeed="0.00" departDelay="0.00" arrival="482.00" arrivalLane="53i_0" arrivalPos="10.00" arrivalSpeed="11.62" duration="88.00" routeLength="1013.10" waitSteps="0" timeLoss="15.99" rerouteNo="0" devices="tripinfo_down_86" vType="typeNS" speedFactor="1.00" vaporized=""/>
    <tripinfo id="down_88" depart="399.00" departLane="54o_0" departPos="7.10" departSpeed="0.00" departDelay="2.00" arrival="488.00" arrivalLane="53i_0" arrivalPos="10.00" arrivalSpeed="11.56" duration="89.00" routeLength="1013.10" waitSteps="0" timeLoss="17.47" rerouteNo="0" devices="tripinfo_down_88" vType="typeNS" speedFactor="1.00" vaporized=""/>
    <tripinfo id="right_65" depart="304.00" departLane="51o_0" departPos="5.10" departSpeed="0.00" departDelay="10.00" arrival="536.00" arrivalLane="52i_0" arrivalPos="10.00" arrivalSpeed="10.98" duration="232.00" routeLength="1015.10" waitSteps="112" timeLoss="156.06" rerouteNo="0" devices="tripinfo_right_65" vType="typeWE" speedFactor="1.00" vaporized=""/>
    <tripinfo id="left_54" depart="239.00" departLane="52o_0" departPos="5.10" departSpeed="0.00" departDelay="1.00" arrival="536.00" arrivalLane="51i_0" arrivalPos="10.00" arrivalSpeed="11.79" duration="297.00" routeLength="1015.10" waitSteps="151" timeLoss="221.25" rerouteNo="0" devices="tripinfo_left_54" vType="typeWE" speedFactor="1.00" vaporized=""/>
    <tripinfo id="left_58" depart="272.00" departLane="52o_0" departPos="5.10" departSpeed="0.00" departDelay="0.00" arrival="538.00" arrivalLane="51i_0" arrivalPos="10.00" arrivalSpeed="11.73" duration="266.00" routeLength="1015.10" waitSteps="122" timeLoss="190.00" rerouteNo="0" devices="tripinfo_left_58" vType="typeWE" speedFactor="1.00" vaporized=""/>
    <tripinfo id="right_68" depart="322.00" departLane="51o_0" departPos="5.10" departSpeed="0.00" departDelay="0.00" arrival="538.00" arrivalLane="52i_0" arrivalPos="10.00" arrivalSpeed="11.38" duration="216.00" routeLength="1015.10" waitSteps="102" timeLoss="140.18" rerouteNo="0" devices="tripinfo_right_68" vType="typeWE" speedFactor="1.00" vaporized=""/>
    <tripinfo id="right_72" depart="342.00" departLane="51o_0" departPos="5.10" departSpeed="0.00" departDelay="0.00" arrival="540.00" arrivalLane="52i_0" arrivalPos="10.00" arrivalSpeed="11.42" duration="198.00" routeLength="1015.10" waitSteps="80" timeLoss="122.24" rerouteNo="0" devices="tripinfo_right_72" vType="typeWE" speedFactor="1.00" vaporized=""/>
    <tripinfo id="left_59" depart="277.00" departLane="52o_0" departPos="5.10" departSpeed="0.00" departDelay="2.00" arrival="541.00" arrivalLane="51i_0" arrivalPos="10.00" arrivalSpeed="11.42" duration="264.00" routeLength="1015.10" waitSteps="122" timeLoss="187.54" rerouteNo="0" devices="tripinfo_left_59" vType="typeWE" speedFactor="1.00" vaporized=""/>
    <tripinfo id="down_94" depart="440.00" departLane="54o_0" departPos="7.10" departSpeed="0.00" departDelay="0.00" arrival="554.00" arrivalLane="53i_0" arrivalPos="10.00" arrivalSpeed="11.46" duration="114.00" routeLength="1013.10" waitSteps="15" timeLoss="42.10" rerouteNo="0" devices="tripinfo_down_94" vType="typeNS" speedFactor="1.00" vaporized=""/>
    <tripinfo id="down_95" depart="457.00" departLane="54o_0" departPos="7.10" departSpeed="0.00" departDelay="0.00" arrival="556.00" arrivalLane="53i_0" arrivalPos="10.00" arrivalSpeed="11.63" duration="99.00" routeLength="1013.10" waitSteps="0" timeLoss="27.16" rerouteNo="0" devices="tripinfo_down_95" vType="typeNS" speedFactor="1.00" vaporized=""/>
    <tripinfo id="down_97" depart="463.00" departLane="54o_0" departPos="7.10" departSpeed="0.00" departDelay="4.00" arrival="558.00" arrivalLane="53i_0" arrivalPos="10.00" arrivalSpeed="11.46" duration="95.00" routeLength="1013.10" waitSteps="0" timeLoss="23.23" rerouteNo="0" devices="tripinfo_down_97" vType="typeNS" speedFactor="1.00" vaporized=""/>